/*--------------------------------*- C++ -*----------------------------------*\
| =========                 |                                                 |
| \\      /  F ield         | OpenFOAM: The Open Source CFD Toolbox           |
|  \\    /   O peration     | Version:  3.0.1                                 |
|   \\  /    A nd           | Web:      www.OpenFOAM.org                      |
|    \\/     M anipulation  |                                                 |
\*---------------------------------------------------------------------------*/
FoamFile
{
    version     2.0;
    format      ascii;
    class       volScalarField;
    location    "0.691773";
    object      k;
}
// * * * * * * * * * * * * * * * * * * * * * * * * * * * * * * * * * * * * * //

dimensions      [0 2 -2 0 0 0 0];

internalField   nonuniform List<scalar> 
21246
(
0.509396
0.699154
0.331792
0.178538
0.0893618
0.046359
0.0278911
0.0206606
0.0177141
0.0163412
0.0155907
0.530427
0.77569
0.396769
0.215084
0.113502
0.0573154
0.0316631
0.0217103
0.0179634
0.0163672
0.0155686
0.526256
0.681433
0.420023
0.244053
0.132687
0.0687371
0.0367
0.0234045
0.018525
0.0165996
0.0157618
0.495453
0.589928
0.415505
0.253083
0.144974
0.0779182
0.041883
0.0254599
0.0193232
0.0170074
0.0161157
0.448854
0.531782
0.401765
0.253568
0.151691
0.0853176
0.0465575
0.0276349
0.0202745
0.0175377
0.0165593
0.396243
0.493825
0.38818
0.25371
0.157045
0.0917466
0.0511349
0.0298135
0.0212914
0.0181268
0.0170299
0.342916
0.468261
0.377353
0.255288
0.162593
0.0975575
0.055851
0.032448
0.022339
0.0187365
0.0175391
0.292084
0.45184
0.369935
0.25793
0.16837
0.103333
0.060492
0.035365
0.0237125
0.0194009
0.018047
0.24659
0.439734
0.366954
0.262239
0.174793
0.109579
0.065432
0.0386045
0.025371
0.0201988
0.0185762
0.20706
0.429659
0.368723
0.269227
0.182723
0.116916
0.0711592
0.0424088
0.0274279
0.0211829
0.0191513
0.17319
0.422599
0.375245
0.279072
0.192251
0.12538
0.0778249
0.0469538
0.0300048
0.0224465
0.019816
0.146155
0.421318
0.387352
0.291928
0.203194
0.134709
0.0853257
0.0523004
0.0332178
0.0241041
0.0206531
0.128848
0.426337
0.406243
0.309341
0.216581
0.14539
0.093897
0.0586514
0.0372659
0.0263207
0.021777
0.12365
0.437049
0.433362
0.333925
0.234359
0.158494
0.104067
0.0663376
0.0424449
0.0293481
0.0233679
0.130997
0.45809
0.471871
0.369009
0.258732
0.17516
0.116343
0.0756205
0.0490078
0.0334742
0.0256941
0.143634
0.478356
0.519007
0.419294
0.294799
0.198653
0.132467
0.0874118
0.057521
0.0391552
0.0291496
0.150995
0.480496
0.560152
0.484603
0.349088
0.234794
0.156142
0.103819
0.0692172
0.0472449
0.0343977
0.151425
0.462311
0.577786
0.55162
0.423201
0.290276
0.193238
0.128823
0.0866202
0.0594031
0.0426465
0.146833
0.430078
0.563782
0.595672
0.505721
0.368582
0.251785
0.169705
0.115074
0.0793411
0.0565269
0.138809
0.39014
0.522348
0.597663
0.570796
0.461938
0.338148
0.23715
0.164534
0.114918
0.0819033
0.129381
0.346135
0.465007
0.561362
0.597836
0.550036
0.4494
0.341161
0.249543
0.180281
0.130746
0.13632
0.316686
0.417287
0.513238
0.586768
0.599682
0.550731
0.46455
0.370134
0.286
0.217149
0.140785
0.30491
0.373499
0.431575
0.477946
0.506395
0.509595
0.482463
0.430492
0.368511
0.302438
0.171548
0.325912
0.37799
0.435406
0.480853
0.509434
0.514532
0.488567
0.440073
0.383233
0.322568
0.437724
0.501095
0.284805
0.142887
0.0740528
0.0414266
0.0267618
0.0205623
0.0178593
0.0165419
0.0158022
0.337032
0.39688
0.247585
0.148479
0.0813827
0.0460954
0.0291643
0.0217459
0.018528
0.0170064
0.0161972
0.33479
0.393229
0.242845
0.16992
0.101464
0.0582856
0.0348551
0.0241855
0.0197258
0.0177496
0.0167955
0.333698
0.366343
0.227841
0.174368
0.112084
0.0683385
0.0417809
0.027902
0.0216487
0.018892
0.0176405
0.330584
0.324323
0.214256
0.17043
0.112053
0.0703818
0.0440882
0.0299313
0.0231508
0.0199969
0.0184963
0.326042
0.286196
0.201051
0.161672
0.108151
0.070227
0.0451896
0.0311556
0.0242292
0.0209383
0.0193861
0.321064
0.255872
0.188956
0.152012
0.102924
0.0687104
0.0452889
0.0319319
0.0252003
0.0219345
0.0203993
0.315857
0.232105
0.178068
0.143064
0.0977911
0.0667426
0.0448932
0.0324122
0.0260407
0.0229297
0.0214976
0.311207
0.213442
0.168792
0.135333
0.0935945
0.0649591
0.0444468
0.0327326
0.0267152
0.0237919
0.0224627
0.307622
0.198908
0.161008
0.129078
0.0906585
0.0636215
0.0441814
0.0330492
0.0273135
0.0245729
0.0234012
0.305199
0.187639
0.15483
0.124546
0.0888689
0.0629473
0.0442461
0.0334577
0.0278869
0.0252901
0.0242766
0.303797
0.178511
0.149699
0.121367
0.0880326
0.0629519
0.0447089
0.0340356
0.0284932
0.0259671
0.0250686
0.303565
0.171052
0.145573
0.119417
0.0881716
0.0637279
0.0456797
0.0348902
0.0292163
0.0266573
0.0258399
0.303366
0.165792
0.142303
0.118525
0.0894099
0.0654711
0.0473888
0.0362123
0.0301984
0.0274702
0.0266706
0.30276
0.161769
0.139302
0.117922
0.0913151
0.0680575
0.0500121
0.0383121
0.0317556
0.0286691
0.0277407
0.301865
0.158941
0.136556
0.117543
0.0937517
0.0715106
0.0536398
0.0413815
0.0341158
0.030472
0.0292316
0.300761
0.157288
0.134093
0.117305
0.0965698
0.0758126
0.0583597
0.0456309
0.0375638
0.0331756
0.031406
0.299474
0.156655
0.131909
0.117065
0.0995202
0.0808105
0.064182
0.0512426
0.0424151
0.0371655
0.0346685
0.298077
0.156963
0.13007
0.116691
0.102305
0.0862087
0.0709877
0.0583129
0.0489789
0.0429032
0.0395775
0.29671
0.158217
0.128715
0.116088
0.104566
0.091508
0.0783943
0.0667028
0.057412
0.050825
0.0467979
0.295596
0.160351
0.127988
0.115191
0.105867
0.0959271
0.0855539
0.0757268
0.0673591
0.0609795
0.0567885
0.295344
0.163046
0.12788
0.113897
0.105643
0.0982801
0.0908436
0.0836098
0.0771739
0.0720628
0.0686717
0.296517
0.166665
0.128422
0.112025
0.103229
0.0970604
0.0918076
0.0871256
0.0831993
0.080358
0.0790144
0.311098
0.172769
0.13961
0.125974
0.119712
0.116629
0.11462
0.115873
0.120316
0.126291
0.131402
0.0934272
0.198753
0.205017
0.192647
0.159345
0.120822
0.087217
0.0614016
0.0424472
0.0289984
0.0201865
0.0948406
0.176942
0.175151
0.163345
0.134945
0.101868
0.0729455
0.050949
0.0350749
0.0239375
0.0165269
0.0901476
0.150707
0.15372
0.144655
0.121515
0.0929691
0.0668692
0.0465227
0.0317256
0.0213171
0.0142861
0.0850995
0.133092
0.140751
0.134148
0.114814
0.0894541
0.0650109
0.0452531
0.0306445
0.0203383
0.0134118
0.0810358
0.122686
0.133611
0.129166
0.112498
0.089191
0.0655331
0.0456908
0.0307731
0.0202352
0.013227
0.0776155
0.116252
0.129745
0.127286
0.112645
0.0906951
0.067302
0.0470093
0.031533
0.0206087
0.0134092
0.0744458
0.111794
0.127338
0.126683
0.113733
0.0928218
0.0695123
0.0486777
0.0325871
0.0212321
0.0137532
0.0724889
0.108929
0.125425
0.126288
0.114783
0.0947891
0.0716037
0.0503338
0.0337126
0.0219771
0.014325
0.0709457
0.10678
0.123791
0.125778
0.115469
0.0963127
0.0733483
0.051816
0.0348059
0.0227678
0.014931
0.0694325
0.104994
0.122321
0.125155
0.115863
0.0974784
0.0747989
0.0531371
0.0358523
0.0235675
0.015522
0.0679624
0.103453
0.120937
0.124434
0.116022
0.0983602
0.0760169
0.0543297
0.0368519
0.0243595
0.0161647
0.0668709
0.102291
0.119654
0.123632
0.115959
0.0989788
0.0770282
0.0554123
0.0378128
0.0251391
0.0167799
0.0660034
0.101255
0.11844
0.122847
0.115851
0.0995352
0.0780045
0.0564982
0.0387999
0.0259422
0.0173903
0.0651817
0.100014
0.117241
0.122179
0.115912
0.100289
0.0791782
0.0577548
0.0399145
0.0268204
0.0180733
0.0644916
0.0990645
0.116149
0.121615
0.116147
0.101288
0.0806383
0.0592781
0.0412356
0.0278303
0.018793
0.0639749
0.098152
0.115074
0.121136
0.116612
0.102721
0.0826329
0.0612756
0.0429022
0.0290557
0.0196437
0.0635186
0.0969243
0.113854
0.120678
0.117334
0.104673
0.0853632
0.0640641
0.0451952
0.030649
0.0206959
0.063068
0.0955377
0.112517
0.120222
0.118304
0.107201
0.0889474
0.0677668
0.0482581
0.0327864
0.0220594
0.0625889
0.0938252
0.110917
0.119658
0.119489
0.11038
0.093579
0.0726728
0.0523803
0.0356975
0.023814
0.0620104
0.0915203
0.108842
0.118835
0.120832
0.114256
0.0994166
0.0790592
0.0579024
0.0397087
0.0262904
0.061156
0.0882251
0.106005
0.117538
0.122163
0.118676
0.106382
0.0870449
0.0651741
0.0452765
0.0299602
0.0600475
0.0843131
0.102195
0.115396
0.122901
0.122882
0.113755
0.0962586
0.074349
0.052963
0.0355153
0.0573803
0.0745516
0.0927157
0.108269
0.119533
0.123948
0.119204
0.105155
0.0848537
0.0630935
0.0438722
0.104872
0.0826675
0.0867792
0.103037
0.116325
0.12232
0.120617
0.110824
0.0943784
0.0746582
0.0554129
0.0689609
0.147315
0.20038
0.212935
0.194333
0.158181
0.118596
0.0844497
0.0581908
0.0395411
0.0271718
0.073746
0.0968612
0.143025
0.171931
0.1832
0.180533
0.155367
0.119625
0.086406
0.0597361
0.0411935
0.0960789
0.112202
0.154789
0.185975
0.18503
0.176869
0.166176
0.144794
0.113112
0.083842
0.0608264
0.116158
0.134566
0.181504
0.231279
0.249875
0.218234
0.185848
0.159213
0.132771
0.105556
0.083671
0.133571
0.156393
0.204463
0.264882
0.316088
0.313832
0.254726
0.196981
0.153556
0.12214
0.0997658
0.14842
0.176647
0.223171
0.283217
0.348411
0.395741
0.361274
0.27805
0.199597
0.144839
0.112873
0.161193
0.195177
0.239266
0.29227
0.354054
0.423189
0.453194
0.384028
0.277618
0.187826
0.131857
0.172552
0.212665
0.254577
0.297509
0.346531
0.414578
0.485105
0.4738
0.370887
0.251442
0.163759
0.18299
0.230169
0.270526
0.302459
0.335502
0.389921
0.470784
0.520694
0.452396
0.322589
0.208245
0.192844
0.248276
0.287634
0.308457
0.326056
0.363093
0.436259
0.521354
0.506406
0.385912
0.255285
0.202574
0.26747
0.30591
0.315966
0.320372
0.341469
0.399882
0.496994
0.531785
0.432014
0.295329
0.212857
0.287766
0.325198
0.325383
0.318858
0.327519
0.370565
0.460102
0.53509
0.458991
0.323932
0.224565
0.309906
0.345031
0.33666
0.320806
0.320641
0.351069
0.419589
0.514578
0.475714
0.335295
0.236976
0.334719
0.36713
0.349806
0.324097
0.315416
0.335455
0.383829
0.45066
0.480379
0.333078
0.249874
0.363226
0.393109
0.365859
0.32814
0.308044
0.315019
0.344839
0.387052
0.415009
0.341925
0.264143
0.397166
0.425029
0.386785
0.334849
0.301078
0.293888
0.306766
0.329692
0.34801
0.332734
0.280383
0.438333
0.4658
0.416109
0.348141
0.299229
0.278432
0.278111
0.288876
0.301588
0.303395
0.299238
0.489158
0.520797
0.461617
0.376872
0.311038
0.276067
0.263725
0.263631
0.267585
0.268635
0.321214
0.555995
0.604528
0.544928
0.446749
0.362952
0.312628
0.28958
0.281947
0.279535
0.275442
0.31467
0.58923
0.66767
0.635265
0.545081
0.451112
0.385801
0.353892
0.344489
0.337631
0.329059
0.277617
0.539563
0.631459
0.62931
0.568913
0.485259
0.408771
0.352481
0.297351
0.236233
0.191546
0.240654
0.470564
0.565042
0.583062
0.549914
0.482128
0.403643
0.316458
0.227721
0.168795
0.125579
0.218286
0.403043
0.473469
0.483209
0.454051
0.390652
0.296535
0.210626
0.154558
0.118222
0.0917737
0.182938
0.289562
0.290691
0.267303
0.223737
0.173823
0.142933
0.12269
0.106205
0.0892612
0.0712436
0.826086
0.985916
0.528244
0.260707
0.134588
0.0701749
0.0367306
0.0197835
0.0117119
0.00814772
0.00660113
0.484186
0.568021
0.410312
0.26487
0.152135
0.0824308
0.0432551
0.0226953
0.0127144
0.00833762
0.00654997
0.464269
0.532996
0.382679
0.273769
0.166833
0.0932725
0.0494737
0.0257931
0.0140494
0.00880142
0.00664973
0.454452
0.481378
0.341636
0.259112
0.163031
0.0956107
0.0525527
0.0280345
0.0152919
0.00938324
0.00692519
0.447066
0.419693
0.303967
0.236895
0.151433
0.0928039
0.0528237
0.0291579
0.0162675
0.00997902
0.00723708
0.440813
0.364841
0.271845
0.213426
0.137911
0.0870006
0.0511196
0.0292119
0.0167702
0.0104001
0.00750872
0.435153
0.322791
0.245163
0.191167
0.125095
0.0803774
0.0483906
0.0284988
0.0168524
0.0106479
0.00770041
0.429316
0.28986
0.222321
0.17176
0.11359
0.0738054
0.0452471
0.0273273
0.0166132
0.0107282
0.00788266
0.424569
0.263862
0.202945
0.155594
0.103715
0.0678458
0.0421457
0.0259789
0.016201
0.0107232
0.00802445
0.422508
0.243606
0.187101
0.14267
0.0956517
0.0628253
0.0393911
0.0246734
0.0157321
0.0106622
0.00809758
0.422068
0.227753
0.174022
0.132259
0.0891073
0.0586957
0.0370522
0.0235037
0.0152695
0.0105667
0.0081474
0.42111
0.21498
0.162817
0.123578
0.0836702
0.0552783
0.0350936
0.0224968
0.0148491
0.0104621
0.00816388
0.421004
0.204859
0.153453
0.116554
0.0793298
0.0525894
0.0335441
0.0216892
0.0145039
0.0103743
0.00818493
0.421406
0.198625
0.146258
0.111281
0.0761648
0.0506869
0.0324495
0.0211174
0.0142615
0.0103214
0.00821693
0.42096
0.19408
0.140205
0.107094
0.0739919
0.0495397
0.0318654
0.0208398
0.0141683
0.0103283
0.00828352
0.420022
0.19125
0.135391
0.103751
0.0726438
0.0490751
0.0318259
0.0209149
0.0142874
0.0104652
0.00841434
0.418784
0.191023
0.132259
0.101454
0.0722612
0.0494376
0.0324505
0.0214407
0.0146832
0.0107584
0.00861934
0.417229
0.192303
0.130586
0.100103
0.0727175
0.0506291
0.0338081
0.0225231
0.0154499
0.0112754
0.00895125
0.415594
0.195221
0.130587
0.0998531
0.0740814
0.0527706
0.0360717
0.0243651
0.0167666
0.0121483
0.0094952
0.414269
0.199818
0.132575
0.100986
0.0765145
0.0560438
0.0394941
0.0272731
0.0189303
0.0136152
0.0104196
0.413767
0.206
0.136838
0.10391
0.0802877
0.0606797
0.0443776
0.0316484
0.0223877
0.0160896
0.0120552
0.415173
0.212902
0.143395
0.109139
0.0858632
0.0670119
0.0510647
0.0379519
0.0277261
0.0202082
0.0149882
0.418275
0.218793
0.151681
0.116986
0.0937889
0.0754661
0.0599122
0.0466169
0.0355641
0.0267646
0.0200924
0.442289
0.222131
0.16825
0.134892
0.1102
0.090353
0.0736693
0.0593756
0.0471608
0.0369099
0.0285575
0.934945
1.35091
0.589468
0.333517
0.166823
0.0820437
0.0403763
0.0207903
0.012085
0.00842865
0.00687669
0.953731
1.58159
0.685105
0.400937
0.215059
0.109591
0.0528526
0.0257522
0.0139334
0.00921988
0.00734092
0.936931
1.41805
0.711947
0.432661
0.245832
0.135722
0.0671484
0.0321347
0.0164908
0.0103873
0.00811742
0.883736
1.21731
0.66939
0.426918
0.25548
0.153466
0.0793496
0.0382964
0.0191109
0.0116504
0.00902791
0.813453
1.06635
0.61223
0.398048
0.252516
0.161206
0.0872426
0.0430832
0.0213083
0.0127643
0.00982709
0.742089
0.965696
0.558248
0.365005
0.243328
0.161085
0.0906929
0.04596
0.0228059
0.0136388
0.0106506
0.677225
0.897109
0.512313
0.335361
0.231634
0.156438
0.0908804
0.0470836
0.0235945
0.0142825
0.0114003
0.621157
0.845741
0.473029
0.309729
0.219202
0.149735
0.0891079
0.04695
0.0238303
0.014721
0.0120408
0.57498
0.803318
0.439993
0.287917
0.207236
0.142626
0.0865012
0.0461312
0.0237166
0.0150276
0.0126975
0.536174
0.767242
0.412576
0.269464
0.196426
0.136016
0.0838434
0.0451062
0.0234633
0.0152479
0.0133855
0.50256
0.735616
0.391466
0.25474
0.187214
0.130449
0.08173
0.0443479
0.0233408
0.0154527
0.0139826
0.472998
0.70523
0.37495
0.242807
0.179102
0.125652
0.0801423
0.0441659
0.0237264
0.0158962
0.0145565
0.446632
0.675186
0.36237
0.233254
0.172099
0.121754
0.0792019
0.0446835
0.0246573
0.0166134
0.015162
0.422503
0.644624
0.35438
0.226694
0.166598
0.118977
0.079052
0.0460334
0.0262084
0.0176739
0.0158305
0.399713
0.615105
0.348897
0.222438
0.162469
0.117227
0.0796721
0.0482186
0.0284443
0.0191697
0.0166546
0.377892
0.585723
0.345718
0.220727
0.160023
0.11665
0.0811913
0.051317
0.0314985
0.0212726
0.017762
0.356558
0.555472
0.344723
0.222
0.159777
0.117503
0.0837871
0.0554382
0.0355465
0.0242137
0.0194052
0.335089
0.524311
0.345248
0.226462
0.16232
0.120248
0.0877461
0.0607333
0.0407893
0.0282813
0.0218938
0.312813
0.491614
0.346545
0.234384
0.168527
0.125712
0.0936508
0.0675547
0.0475326
0.0338465
0.0257075
0.28879
0.456093
0.347436
0.245958
0.179672
0.135394
0.10272
0.0767262
0.0563554
0.0414474
0.031452
0.261439
0.414325
0.345556
0.260926
0.197452
0.151848
0.117408
0.0901872
0.0686242
0.0520949
0.0399979
0.228007
0.377092
0.341461
0.278562
0.2229
0.177509
0.14061
0.110637
0.0864964
0.0674004
0.0525742
0.183295
0.286517
0.268553
0.236306
0.202022
0.168749
0.138655
0.112404
0.0900423
0.0714064
0.0560994
0.396907
0.28384
0.212882
0.167908
0.135952
0.111719
0.0921349
0.0757322
0.0617487
0.0497907
0.0396357
0.0777959
0.0674398
0.0474141
0.0213188
0.0141146
0.0156139
0.0192059
0.037138
0.0651846
0.0813112
0.0690263
0.0547251
0.0413363
0.0285608
0.0256303
0.0394036
0.0634332
0.0790899
0.0823928
0.0772313
0.0651499
0.05
0.0368733
0.0332971
0.0504514
0.0790533
0.0928527
0.0704538
0.0718133
0.0666452
0.0559077
0.0443192
0.0412517
0.0596698
0.0839787
0.0896421
0.0811308
0.0811378
0.0792975
0.076747
0.0743407
0.082184
0.0837914
0.0816957
0.07675
0.0917119
0.0986787
0.105067
0.111688
0.118658
0.119896
0.116922
0.110116
0.0965003
0.0838196
0.0868531
0.0942322
0.101271
0.10557
0.105638
0.102709
0.100629
0.0997616
0.0670059
0.0659014
0.0701678
0.0761189
0.079147
0.0782495
0.0786207
0.0825994
0.0871516
0.00442817
0.00460131
0.00461619
0.00250271
0.0450753
0.00438854
0.011557
0.00454093
0.0043786
0.00422598
0.0447243
0.00455057
0.00373364
0.00329784
0.0044842
0.00430229
0.00329762
0.00248763
0.00429137
0.00425095
0.00411921
0.00435184
0.00466511
0.017565
0.00449367
0.00330909
0.00378097
0.0110686
0.0819846
0.0482295
0.00338546
0.00409914
0.00300392
0.00453567
0.00425768
0.00459266
0.0163888
0.00448838
0.00291041
0.0043975
0.00548225
0.00454455
0.00568667
0.00465786
0.0620528
0.015313
0.00319106
0.0244004
0.00428696
0.00431113
0.0480613
0.00440444
0.0243158
0.00575856
0.00430838
0.00412611
0.00433649
0.00441155
0.080344
0.00829652
0.00548054
0.0234932
0.0525644
0.00855536
0.0072771
0.00426176
0.0509059
0.00429723
0.00460183
0.00421767
0.00329149
0.00425117
0.00320192
0.00437076
0.00668876
0.00424152
0.00460212
0.00459589
0.00936308
0.0730399
0.0510678
0.00678332
0.00449674
0.00462562
0.00437619
0.00324387
0.106033
0.0241484
0.00313543
0.0180336
0.00454301
0.00442397
0.00576817
0.00429498
0.0714938
0.0342353
0.0053371
0.00400822
0.00346983
0.00429198
0.00466277
0.020699
0.00415377
0.00402539
0.00287541
0.00454924
0.00304917
0.00464629
0.00438578
0.00416867
0.0045104
0.00455902
0.00427456
0.00243867
0.00445212
0.00442383
0.00438003
0.00431149
0.00450054
0.00413478
0.00242594
0.00435815
0.00433458
0.00324926
0.013144
0.00424917
0.0633553
0.00304594
0.00322237
0.00354506
0.00446124
0.00815076
0.0227246
0.00424094
0.00461365
0.00455786
0.00389799
0.0044592
0.0489688
0.00445396
0.00560729
0.0041281
0.0239742
0.00402397
0.00436931
0.00330866
0.00447078
0.00429404
0.00427175
0.00425346
0.0042749
0.00442521
0.00355898
0.00433456
0.00255701
0.00317345
0.00389329
0.00379423
0.0032025
0.00435511
0.00363906
0.00424734
0.00424755
0.00443041
0.0529675
0.0056887
0.00359625
0.00473686
0.00413699
0.0068613
0.00311378
0.00309529
0.00418939
0.00405989
0.00409016
0.00396227
0.00317033
0.00358355
0.0627391
0.0039284
0.0042916
0.00415535
0.00465905
0.0139235
0.00450085
0.00426605
0.00426641
0.00429741
0.00458911
0.012616
0.00420876
0.00341767
0.00427283
0.00509352
0.00460955
0.00439331
0.00434198
0.00353561
0.00363298
0.00467913
0.00317218
0.00430578
0.00402464
0.00348449
0.0046268
0.0244825
0.00429262
0.00321465
0.00432904
0.00433763
0.0217325
0.00439549
0.00401446
0.0042157
0.0044938
0.0125692
0.00450883
0.00370485
0.00427508
0.00323272
0.00284257
0.00235811
0.00520962
0.00440979
0.00320869
0.00441673
0.0101122
0.0055509
0.00396954
0.0239168
0.0038944
0.00425757
0.00427165
0.00436048
0.0035101
0.0563538
0.0507046
0.00464558
0.00455682
0.00454579
0.00371759
0.0110629
0.00401626
0.00455162
0.00439048
0.00470755
0.00451816
0.00357627
0.03068
0.0629295
0.00356481
0.0218183
0.00520186
0.00429917
0.0039548
0.00435373
0.00414907
0.00447329
0.00319901
0.00426449
0.00340405
0.00458475
0.00432521
0.00457249
0.00450852
0.00307283
0.00413052
0.00443835
0.00559307
0.00372275
0.0233303
0.00430402
0.00430017
0.00310134
0.00438507
0.00432389
0.00331122
0.00444648
0.0042799
0.00317007
0.00426923
0.00459465
0.0511841
0.0473658
0.00395546
0.00439059
0.0716741
0.00458386
0.00424458
0.00520958
0.00461334
0.0112323
0.00471606
0.00288192
0.00467825
0.00433778
0.00414654
0.00456288
0.00425454
0.00333925
0.0044562
0.00250801
0.00435845
0.0485986
0.00416025
0.00416045
0.00459626
0.0171611
0.00408848
0.00434389
0.0072651
0.00456224
0.00409106
0.00301198
0.00497758
0.00410792
0.00370032
0.00326984
0.00412783
0.00431859
0.00426158
0.0405296
0.00435551
0.00339001
0.00569153
0.00432811
0.00445485
0.00371426
0.00424129
0.0286057
0.00435193
0.0527998
0.00431249
0.0046492
0.0035703
0.0456245
0.00358562
0.00458442
0.0044714
0.0039776
0.00401278
0.0205438
0.00429885
0.00556163
0.0214888
0.0173398
0.00553597
0.0043781
0.0139246
0.0665968
0.00870724
0.00394422
0.00374004
0.00417944
0.00393927
0.00468914
0.0028536
0.00399779
0.00465911
0.0365645
0.00386168
0.00333455
0.00451666
0.00451287
0.00430282
0.003306
0.00308429
0.00288875
0.0104828
0.00437076
0.00443963
0.0124963
0.039476
0.00321095
0.00389071
0.00460497
0.00391647
0.00424511
0.00437139
0.00425753
0.039864
0.00437865
0.0032207
0.00442367
0.00340565
0.0517742
0.00242724
0.00319434
0.010718
0.00349367
0.00443548
0.00521762
0.0031016
0.00456151
0.0522705
0.00754266
0.00448208
0.00428175
0.00461783
0.00529527
0.00317605
0.00441026
0.00466153
0.00530348
0.00289953
0.00939454
0.0079982
0.00744658
0.0043045
0.0404524
0.00452095
0.00427722
0.00374161
0.00368001
0.00415806
0.00407269
0.00423363
0.00444158
0.0031499
0.00493144
0.029779
0.00322166
0.0125785
0.00413754
0.00398195
0.00415927
0.00434432
0.00481199
0.00486963
0.00976429
0.00448744
0.00321505
0.00342936
0.0041018
0.0047256
0.00285372
0.024137
0.0474973
0.0032604
0.00468836
0.00396044
0.095816
0.00317447
0.00246128
0.00427312
0.00329415
0.011252
0.003393
0.00433873
0.00400287
0.00444786
0.00461275
0.00449701
0.00431759
0.00445398
0.0107164
0.00312274
0.00317468
0.00491713
0.00459059
0.00433489
0.0652368
0.00320926
0.00394535
0.00447519
0.00814483
0.00760891
0.00545505
0.00546768
0.00434515
0.00393303
0.00317288
0.0042369
0.00536925
0.00435887
0.00458142
0.00431291
0.00557853
0.00370117
0.0042677
0.00445154
0.00413457
0.0178981
0.0041489
0.00464573
0.00336719
0.0315654
0.00404703
0.00287596
0.00433708
0.00335364
0.00439086
0.00434322
0.00441055
0.00337865
0.00326574
0.0042635
0.00339662
0.00400236
0.00441905
0.00375002
0.00370423
0.00453373
0.00453577
0.0342243
0.00308133
0.00291506
0.00435868
0.0167657
0.00461869
0.0357195
0.00434659
0.00355648
0.00504366
0.00470777
0.0492335
0.0046582
0.00338556
0.00445462
0.00360505
0.00411717
0.00459294
0.00442369
0.00456847
0.00425959
0.0379636
0.00451634
0.00435016
0.0122557
0.00444851
0.00873659
0.00435428
0.0137706
0.00331137
0.00318288
0.00467784
0.00447448
0.00463283
0.0048614
0.00376544
0.00450294
0.00449146
0.00324077
0.00461395
0.00321522
0.00460343
0.040681
0.00423833
0.00412909
0.00290198
0.00335011
0.0173368
0.0377507
0.00417128
0.00412503
0.00426398
0.00460222
0.00285772
0.00335925
0.00423592
0.00351785
0.0211202
0.0298041
0.00449188
0.00430967
0.00459541
0.0108803
0.0541087
0.00422265
0.00453823
0.00437134
0.0479285
0.00428163
0.00301627
0.00328245
0.00914251
0.0355447
0.00443653
0.00451886
0.00446105
0.00464182
0.00432814
0.00653749
0.00319367
0.0040919
0.00523339
0.00723941
0.00463483
0.00467308
0.07104
0.00440441
0.00354364
0.00375351
0.00492615
0.0100044
0.00398542
0.00361532
0.00418883
0.00444937
0.0044917
0.0329599
0.00301528
0.00391065
0.00425228
0.00450114
0.00667474
0.00426119
0.00432619
0.00439152
0.00423968
0.00316731
0.00297069
0.00486479
0.00567558
0.00401697
0.00524154
0.0042927
0.00948615
0.00422856
0.00446366
0.0330044
0.029027
0.00438341
0.00438407
0.00377541
0.00414466
0.00432958
0.00565101
0.00460532
0.00424312
0.00331599
0.00289137
0.00382059
0.0031557
0.00319129
0.00561115
0.0280558
0.00486729
0.00600387
0.00353994
0.00350331
0.00460943
0.00348759
0.00462055
0.00418869
0.00576113
0.00393977
0.00423204
0.00435984
0.00343791
0.00551447
0.0281408
0.00361225
0.00454404
0.00442755
0.00530626
0.00455252
0.00428956
0.00427076
0.00341288
0.00421811
0.00438787
0.00423344
0.0045885
0.00499407
0.00620428
0.0230095
0.00423038
0.00426729
0.00399102
0.00670037
0.00430579
0.0157398
0.00426325
0.00782351
0.037386
0.00443437
0.00301286
0.00465857
0.00302035
0.00595007
0.0031398
0.0279279
0.00364665
0.00427257
0.00463603
0.00372167
0.00321905
0.00424771
0.0649436
0.00436929
0.00407687
0.00463218
0.0037459
0.00422639
0.00323724
0.00455188
0.00441156
0.00439878
0.00379639
0.00400122
0.00456443
0.00333603
0.00437188
0.00539146
0.00321282
0.00408384
0.00429708
0.00447286
0.00284558
0.0040989
0.00373094
0.00361097
0.00701778
0.00304495
0.0119657
0.00447011
0.00335343
0.00449624
0.00434691
0.00671118
0.00522409
0.00340352
0.00329317
0.00428351
0.0042378
0.00412675
0.00406573
0.00458549
0.0560431
0.00460967
0.0386862
0.00415898
0.00397671
0.00820172
0.00968839
0.00437248
0.00348686
0.00378856
0.00294144
0.00452724
0.00334215
0.0217963
0.00454962
0.00871842
0.00351994
0.00437903
0.00732258
0.00438161
0.00432356
0.0042218
0.0033785
0.00428089
0.00321098
0.00456966
0.00302575
0.00424963
0.00290018
0.00305572
0.0245476
0.00428751
0.00428665
0.0215832
0.0145486
0.00446373
0.00321698
0.00385182
0.00361711
0.00521236
0.00389088
0.00477136
0.00446742
0.00290861
0.00501562
0.0042829
0.00437115
0.0044168
0.00519768
0.00385999
0.00468992
0.00449169
0.00453853
0.0324534
0.0384681
0.00360579
0.00457065
0.00336238
0.00463927
0.00455555
0.00458012
0.00462394
0.00448781
0.00438395
0.00317125
0.00509552
0.0108754
0.00308285
0.00450768
0.00442391
0.00450268
0.00376715
0.0317068
0.00459538
0.00409442
0.00352782
0.0153396
0.0198898
0.00459052
0.00391848
0.00405074
0.00442777
0.00447172
0.011606
0.00421923
0.00456005
0.00433982
0.0095402
0.00399983
0.00390317
0.00455685
0.00409541
0.0053065
0.00372887
0.00455901
0.00309746
0.00390096
0.00403058
0.00419389
0.00463937
0.00427758
0.00246231
0.00290986
0.00344518
0.0046005
0.00423068
0.00435149
0.00432226
0.00458517
0.0077111
0.00344271
0.00836286
0.0135462
0.00488023
0.00454254
0.0516889
0.00466864
0.00426171
0.00433881
0.00449336
0.00441907
0.00442761
0.00304842
0.0194083
0.00319805
0.00441527
0.00349764
0.0044202
0.0046882
0.0043127
0.00437948
0.0044088
0.00449889
0.00455845
0.00428995
0.0463667
0.00438025
0.00425987
0.0052608
0.0179643
0.00427848
0.00450501
0.00515509
0.0462608
0.00428291
0.00450587
0.00289878
0.00355844
0.00464847
0.00454241
0.00431004
0.0040068
0.0118915
0.00459327
0.0120559
0.00289395
0.028306
0.00296126
0.0045765
0.00325431
0.00564137
0.00444753
0.00437252
0.00437189
0.00460593
0.00400038
0.00955007
0.00421737
0.00551211
0.0505314
0.00371127
0.00393838
0.00582315
0.00466259
0.00455721
0.00314965
0.0028493
0.00329012
0.00440636
0.0295143
0.00428041
0.00334426
0.00431201
0.00315517
0.00312519
0.00329024
0.0035287
0.00419992
0.00452979
0.0493891
0.00397813
0.0642611
0.00443318
0.00298814
0.0043171
0.00421137
0.0556305
0.00438025
0.00460315
0.00352411
0.00885329
0.00865775
0.0034412
0.00329208
0.0033265
0.0131467
0.0398544
0.00452163
0.00438579
0.0649848
0.00439434
0.00553019
0.00449237
0.0153725
0.00297024
0.00686061
0.004604
0.00342287
0.00464473
0.00441592
0.00421799
0.0028214
0.00426554
0.00445891
0.00429001
0.00459743
0.00449641
0.00474983
0.00426295
0.00417353
0.0086233
0.00355388
0.00403862
0.00460965
0.00918517
0.00299303
0.00459518
0.0046702
0.00408642
0.00621433
0.049054
0.00397083
0.00342924
0.00410126
0.00434037
0.00315478
0.00444664
0.00426726
0.0105882
0.00455473
0.0569534
0.00951531
0.0288137
0.00455484
0.00455867
0.00439185
0.0448784
0.00336783
0.00313216
0.00467568
0.00307377
0.02073
0.004561
0.00402829
0.00821726
0.00397667
0.0307871
0.00365979
0.00446453
0.00432418
0.0041664
0.00430992
0.00568299
0.00277583
0.0136185
0.0532169
0.00459507
0.00310437
0.00387908
0.00513534
0.0153014
0.00329785
0.00438546
0.00406549
0.00316175
0.00454683
0.00465629
0.00467854
0.00568041
0.00414568
0.00460608
0.00371674
0.00489053
0.00322444
0.00452506
0.00830992
0.00406025
0.00407865
0.00397779
0.00455519
0.00428992
0.00445851
0.0132876
0.00437913
0.0134118
0.00400027
0.00341608
0.00450868
0.00417999
0.004505
0.00437348
0.00342239
0.014787
0.00612434
0.0552146
0.0103661
0.0381364
0.00417797
0.00432279
0.00254519
0.00462774
0.00325726
0.0187059
0.00428175
0.00512167
0.00388967
0.0318984
0.00423258
0.00319139
0.00455125
0.0522846
0.00469535
0.0326914
0.00415777
0.00442156
0.00501623
0.010094
0.00424637
0.00531378
0.00391701
0.00434146
0.01942
0.00558615
0.0239526
0.00352858
0.00250519
0.0159136
0.00461891
0.00460966
0.00371664
0.00441182
0.00344084
0.00331936
0.00345426
0.00390427
0.00304942
0.054222
0.00437012
0.00429058
0.00447129
0.00456985
0.00284559
0.0034032
0.00420694
0.00332547
0.0429924
0.0043992
0.056598
0.0072836
0.00450157
0.0050172
0.00386815
0.00312522
0.00317718
0.0284475
0.0044205
0.00452983
0.0529008
0.00436786
0.00458641
0.00355455
0.00454408
0.0043498
0.0337545
0.00442109
0.0385061
0.00397335
0.00393269
0.00428921
0.00430336
0.00801308
0.00324556
0.013424
0.00444636
0.00278668
0.00542208
0.0030567
0.0029275
0.0052799
0.00559716
0.00424067
0.00927489
0.0161295
0.00406517
0.0043168
0.00350278
0.00380936
0.00461877
0.00348647
0.0493325
0.00426081
0.00468939
0.00450915
0.0040644
0.00285718
0.00322076
0.00331911
0.0683396
0.00469576
0.00587767
0.00555673
0.00457278
0.00396459
0.00424986
0.00427387
0.0906727
0.00445732
0.0186494
0.0246184
0.00456179
0.00449528
0.00465429
0.0328518
0.0351208
0.0223142
0.0033463
0.00456419
0.00427833
0.00326349
0.0467294
0.00656382
0.00302634
0.00433447
0.00616351
0.010501
0.00537708
0.00418372
0.0129553
0.0285001
0.00405099
0.00383362
0.00429733
0.00436324
0.0317778
0.00321252
0.00369844
0.00460079
0.00463645
0.00418616
0.0487829
0.00369293
0.00291463
0.00872422
0.00676765
0.00437058
0.0136621
0.00595247
0.00462025
0.00305072
0.00304811
0.00412289
0.0625038
0.00453718
0.0044222
0.00421686
0.00446686
0.00310296
0.00435421
0.00472228
0.00461345
0.00455847
0.0046882
0.00329222
0.00443105
0.00719547
0.00422181
0.00456047
0.0496721
0.00442786
0.003522
0.00361725
0.0044535
0.00352018
0.00534417
0.00452348
0.00456308
0.00448244
0.00302124
0.00449745
0.00427798
0.00444487
0.00335787
0.00617706
0.0031432
0.00541901
0.00428673
0.00606418
0.00419336
0.00467558
0.00434957
0.0045866
0.0031587
0.0041388
0.00326686
0.00412778
0.00418613
0.0045041
0.00448714
0.0349252
0.00546852
0.0153136
0.00468828
0.0028411
0.0654697
0.0032361
0.00286437
0.00439223
0.00548813
0.0133375
0.00491494
0.00318537
0.00528283
0.00378969
0.00305333
0.0045048
0.0692696
0.00308879
0.00413626
0.0041518
0.00405508
0.00361081
0.00284272