/*--------------------------------*- C++ -*----------------------------------*\
| =========                 |                                                 |
| \\      /  F ield         | OpenFOAM: The Open Source CFD Toolbox           |
|  \\    /   O peration     | Version:  3.0.1                                 |
|   \\  /    A nd           | Web:      www.OpenFOAM.org                      |
|    \\/     M anipulation  |                                                 |
\*---------------------------------------------------------------------------*/
FoamFile
{
    version     2.0;
    format      ascii;
    class       volScalarField;
    location    "0.691773";
    object      p;
}
// * * * * * * * * * * * * * * * * * * * * * * * * * * * * * * * * * * * * * //

dimensions      [0 2 -2 0 0 0 0];

internalField   nonuniform List<scalar> 
21246
(
-1.6925
1.75295
2.61594
2.65429
2.34091
1.94333
1.5636
1.22269
0.921163
0.668845
0.510947
-19.5024
-9.54748
-5.67566
-2.87292
-1.19274
-0.384236
-0.0486491
0.0521086
0.0417194
-0.0119055
-0.0410068
-22.1148
-15.7315
-12.7237
-8.81832
-5.67754
-3.54642
-2.22812
-1.46656
-1.04205
-0.799739
-0.635522
-18.8872
-16.6082
-15.3047
-12.1287
-9.11225
-6.51439
-4.52503
-3.15571
-2.26316
-1.68487
-1.29196
-15.3209
-14.8079
-14.5073
-12.6392
-10.5579
-8.30625
-6.25942
-4.62169
-3.41187
-2.55204
-1.92611
-12.6798
-12.6448
-12.6278
-11.6483
-10.4226
-8.80114
-7.10843
-5.56136
-4.27359
-3.27174
-2.49503
-10.6306
-10.7572
-10.7775
-10.2469
-9.53777
-8.44843
-7.19435
-5.92175
-4.74799
-3.74866
-2.91637
-8.92708
-9.12278
-9.14211
-8.85329
-8.43545
-7.71118
-6.81733
-5.83486
-4.85756
-3.96286
-3.16933
-7.61885
-7.72731
-7.73744
-7.58863
-7.34002
-6.85748
-6.22643
-5.48548
-4.70203
-3.94242
-3.23265
-6.62642
-6.63755
-6.62131
-6.52646
-6.36018
-6.02709
-5.57524
-5.01727
-4.39765
-3.76844
-3.14705
-5.82254
-5.76287
-5.72734
-5.65254
-5.52518
-5.28054
-4.94445
-4.51714
-4.02632
-3.51302
-2.99709
-5.18981
-5.04695
-4.99695
-4.92815
-4.82044
-4.62896
-4.36601
-4.02819
-3.63268
-3.20937
-2.77208
-4.74139
-4.52218
-4.45074
-4.36449
-4.25119
-4.08022
-3.855
-3.57179
-3.24143
-2.88492
-2.50692
-4.43009
-4.16161
-4.06451
-3.94748
-3.81014
-3.63284
-3.41589
-3.15801
-2.86739
-2.56064
-2.24637
-4.18084
-3.88147
-3.75545
-3.60469
-3.44092
-3.25036
-3.02971
-2.78057
-2.51213
-2.23922
-1.9671
-3.95486
-3.6412
-3.48838
-3.30704
-3.11802
-2.91207
-2.68126
-2.42979
-2.17047
-1.91962
-1.68328
-3.73551
-3.41849
-3.24839
-3.04735
-2.83693
-2.61499
-2.36574
-2.10072
-1.83895
-1.60058
-1.39091
-3.52186
-3.21097
-3.03134
-2.82051
-2.59468
-2.34922
-2.07505
-1.78683
-1.5142
-1.2835
-1.0988
-3.32536
-3.02886
-2.8475
-2.6347
-2.39383
-2.11786
-1.80503
-1.48304
-1.19584
-0.971447
-0.810313
-3.15341
-2.87717
-2.70049
-2.48846
-2.2267
-1.90657
-1.5431
-1.18612
-0.890787
-0.674849
-0.525226
-2.99869
-2.75104
-2.58402
-2.36239
-2.06227
-1.6851
-1.27626
-0.90573
-0.620402
-0.421626
-0.265961
-2.80798
-2.63946
-2.47124
-2.21015
-1.84731
-1.41907
-1.00188
-0.665619
-0.429542
-0.261
-0.112306
-2.76538
-2.60743
-2.35747
-1.99136
-1.56212
-1.13479
-0.777515
-0.529447
-0.366274
-0.218001
0.0483492
-2.50508
-2.00697
-1.5852
-1.21752
-0.903921
-0.661048
-0.522232
-0.47709
-0.470601
-0.477052
-0.452819
17.6149
12.3958
8.81247
6.44285
4.81642
3.69284
2.86926
2.21484
1.68652
1.27182
0.985923
14.2582
13.9653
11.9837
9.62761
7.44265
5.67878
4.31603
3.26194
2.45002
1.84494
1.44594
9.32011
10.8267
10.7679
9.96556
8.48439
6.78363
5.25008
4.00102
3.01719
2.27275
1.77856
4.84787
7.24858
7.98719
8.25888
7.79597
6.81748
5.57441
4.41447
3.38339
2.55907
2.01354
1.64399
3.96315
4.89614
5.84291
6.19114
5.99049
5.25043
4.36553
3.4581
2.67012
2.12079
-0.498415
1.45754
2.23852
3.39983
4.12605
4.45533
4.29947
3.83515
3.19597
2.55635
2.08149
-1.897
-0.276005
0.270151
1.42617
2.23228
2.81969
3.04478
2.96307
2.63267
2.2075
1.86666
-2.76093
-1.42052
-1.12367
-0.0120619
0.697393
1.38319
1.81033
1.97187
1.90581
1.70131
1.5115
-3.42623
-2.20194
-2.15506
-1.05479
-0.472737
0.210951
0.720541
1.03951
1.15643
1.12234
1.07368
-3.98989
-2.94321
-2.7556
-1.93232
-1.36662
-0.714757
-0.185595
0.217558
0.461335
0.566244
0.638666
-4.41259
-3.62374
-3.28671
-2.58491
-2.05269
-1.43808
-0.912541
-0.468778
-0.145395
0.0583167
0.214643
-4.68639
-4.02663
-3.70443
-3.07074
-2.5715
-1.99212
-1.47876
-1.01779
-0.64779
-0.37946
-0.167423
-4.91784
-4.2991
-4.00166
-3.41785
-2.9481
-2.39885
-1.9007
-1.43582
-1.04128
-0.731164
-0.490216
-5.12987
-4.50173
-4.20765
-3.65239
-3.20301
-2.67711
-2.19341
-1.73167
-1.32746
-0.994528
-0.725762
-5.16108
-4.58048
-4.31432
-3.78694
-3.35361
-2.84636
-2.37433
-1.91875
-1.51373
-1.1714
-0.896955
-5.13746
-4.58917
-4.33982
-3.83633
-3.41282
-2.9213
-2.45774
-2.00975
-1.60945
-1.26707
-0.992091
-5.09503
-4.5541
-4.30217
-3.81384
-3.39065
-2.91027
-2.45242
-2.01375
-1.62362
-1.29103
-1.0255
-4.97755
-4.44976
-4.19362
-3.71877
-3.28932
-2.81601
-2.36325
-1.93778
-1.5653
-1.25382
-1.00444
-4.78816
-4.27468
-4.00986
-3.54605
-3.10561
-2.63723
-2.1931
-1.78862
-1.44398
-1.16374
-0.943412
-4.54306
-4.03452
-3.74843
-3.28876
-2.83378
-2.37192
-1.94632
-1.57581
-1.27206
-1.03397
-0.853461
-4.22756
-3.71281
-3.39209
-2.93119
-2.46616
-2.02228
-1.63437
-1.31537
-1.065
-0.875496
-0.738319
-3.80338
-3.27255
-2.90381
-2.44741
-1.99678
-1.59921
-1.27702
-1.02731
-0.837351
-0.696028
-0.596348
-3.32066
-2.70095
-2.29046
-1.88227
-1.49677
-1.18101
-0.943443
-0.76298
-0.622806
-0.51725
-0.446517
-2.19314
-1.6693
-1.35637
-1.10676
-0.888277
-0.7246
-0.606411
-0.503369
-0.403534
-0.318083
-0.298253
-0.152267
0.257568
0.457258
0.557182
0.594196
0.595842
0.574606
0.540041
0.499948
0.462825
0.445886
-0.962784
-0.468421
-0.184733
0.0411973
0.200635
0.298927
0.349801
0.368437
0.366845
0.355727
0.350592
-1.37904
-0.997061
-0.747078
-0.482815
-0.246322
-0.0613696
0.0684128
0.151669
0.200015
0.225876
0.245959
-1.58757
-1.30637
-1.11774
-0.878934
-0.633047
-0.409424
-0.225519
-0.0860108
0.0128899
0.0805019
0.131491
-1.70226
-1.47799
-1.33801
-1.13838
-0.91687
-0.694096
-0.48909
-0.314817
-0.176483
-0.0713404
0.0115207
-1.78647
-1.58173
-1.47462
-1.30299
-1.10976
-0.904151
-0.700188
-0.511847
-0.349274
-0.215717
-0.105012
-1.84866
-1.64699
-1.56835
-1.4099
-1.23812
-1.05107
-0.856993
-0.667449
-0.493368
-0.341166
-0.208765
-1.86974
-1.69241
-1.63265
-1.47688
-1.32095
-1.14916
-0.96625
-0.781266
-0.60389
-0.441361
-0.293119
-1.88426
-1.73113
-1.64898
-1.51118
-1.36893
-1.20862
-1.03564
-0.856994
-0.680686
-0.513759
-0.356227
-1.89292
-1.74254
-1.6547
-1.52884
-1.39148
-1.23823
-1.07283
-0.900094
-0.72644
-0.558444
-0.396158
-1.88389
-1.73448
-1.64808
-1.52657
-1.3924
-1.24401
-1.08385
-0.915714
-0.744878
-0.577334
-0.412056
-1.85342
-1.70692
-1.62346
-1.50495
-1.3734
-1.22835
-1.0718
-0.90724
-0.73928
-0.573144
-0.407588
-1.81542
-1.66767
-1.58427
-1.46681
-1.33651
-1.19334
-1.03917
-0.877315
-0.712185
-0.548587
-0.384065
-1.77128
-1.61879
-1.53314
-1.41494
-1.28428
-1.14157
-0.988651
-0.828887
-0.666593
-0.506341
-0.343959
-1.70647
-1.55294
-1.46718
-1.34827
-1.21677
-1.07378
-0.921593
-0.763935
-0.605192
-0.449735
-0.291594
-1.63023
-1.474
-1.38683
-1.2664
-1.13353
-0.990072
-0.838933
-0.684312
-0.530497
-0.38178
-0.230606
-1.54533
-1.38339
-1.29257
-1.16951
-1.03446
-0.890495
-0.741447
-0.592097
-0.446109
-0.306659
-0.164058
-1.44125
-1.27511
-1.1811
-1.05524
-0.917804
-0.774095
-0.629531
-0.489321
-0.355719
-0.22948
-0.0965893
-1.31978
-1.14876
-1.05026
-0.920627
-0.780895
-0.63994
-0.505031
-0.380421
-0.264824
-0.155287
-0.0349496
-1.1804
-1.00224
-0.89598
-0.760895
-0.620432
-0.488666
-0.373305
-0.273918
-0.182534
-0.0916666
0.0128571
-1.01779
-0.827265
-0.707776
-0.567002
-0.433703
-0.326372
-0.247074
-0.184324
-0.121085
-0.0466208
0.0479347
-0.816993
-0.602381
-0.463938
-0.328124
-0.227859
-0.174061
-0.151361
-0.132522
-0.0937613
-0.0263167
0.0702223
-0.55743
-0.29979
-0.150619
-0.0724711
-0.0556879
-0.0852099
-0.126752
-0.143314
-0.112901
-0.0371313
0.0684553
-0.335226
0.25726
0.193549
0.116632
0.027336
-0.0888686
-0.179731
-0.210921
-0.167691
-0.0668925
0.0587263
0.826106
0.909988
0.946196
0.927792
0.866031
0.797745
0.725054
0.653524
0.590166
0.538334
0.513906
0.894309
0.960305
1.02083
1.05269
1.04001
0.979401
0.893372
0.775813
0.673192
0.588807
0.551204
0.685185
0.744039
0.826098
0.896354
0.935807
0.929628
0.893862
0.851187
0.753837
0.628396
0.547624
0.371619
0.393481
0.466993
0.540024
0.602336
0.630841
0.620424
0.6119
0.606615
0.561706
0.498492
0.00648271
-0.0304952
0.0104829
0.0450626
0.0771342
0.102993
0.105167
0.115405
0.170604
0.24842
0.298039
-0.351938
-0.47234
-0.4852
-0.523703
-0.568835
-0.611576
-0.642976
-0.644122
-0.556392
-0.370895
-0.140724
-0.664604
-0.882473
-0.965199
-1.10308
-1.25892
-1.42222
-1.5619
-1.63806
-1.56296
-1.30969
-0.91589
-0.93899
-1.24224
-1.39484
-1.6427
-1.92469
-2.23799
-2.55034
-2.76712
-2.77953
-2.51483
-2.02097
-1.15474
-1.53686
-1.75047
-2.10665
-2.51418
-2.98355
-3.48599
-3.9082
-4.09179
-3.85734
-3.23332
-1.26901
-1.75687
-2.00333
-2.4576
-2.9801
-3.59608
-4.2836
-4.94355
-5.33974
-5.20397
-4.50819
-1.27769
-1.87749
-2.11013
-2.66199
-3.28483
-4.02418
-4.86843
-5.74151
-6.34594
-6.37535
-5.65981
-1.21636
-1.79743
-2.13891
-2.71217
-3.40281
-4.23017
-5.17723
-6.17835
-6.9737
-7.21954
-6.5091
-1.03711
-1.5891
-1.99719
-2.58503
-3.31599
-4.19455
-5.19775
-6.25085
-7.15621
-7.48551
-6.77059
-0.708752
-1.23082
-1.67007
-2.26014
-2.99984
-3.89158
-4.90576
-5.95674
-6.85047
-7.19637
-6.64278
-0.270794
-0.739546
-1.177
-1.74794
-2.46783
-3.33693
-4.31538
-5.30414
-6.11936
-6.46832
-6.05374
0.279239
-0.130525
-0.551168
-1.09285
-1.77819
-2.60308
-3.51498
-4.39967
-5.08381
-5.37349
-5.12236
0.919869
0.552302
0.142934
-0.374698
-1.02319
-1.79208
-2.61838
-3.37989
-3.91662
-4.10652
-3.95977
1.55724
1.19663
0.779153
0.275915
-0.330579
-1.02576
-1.7454
-2.37032
-2.75937
-2.84681
-2.72381
2.01171
1.62682
1.19359
0.721463
0.187081
-0.412395
-1.02362
-1.53021
-1.79574
-1.76007
-1.53131
2.16059
1.77108
1.35327
0.930561
0.465191
-0.059092
-0.593758
-1.0167
-1.18832
-1.04235
-0.641099
2.09022
1.71167
1.3157
0.904854
0.451931
-0.0432074
-0.531119
-0.891373
-1.01211
-0.794419
-0.218369
1.79123
1.39763
1.0054
0.612032
0.198789
-0.243223
-0.67669
-0.968174
-0.911131
-0.540736
-0.0805615
1.32447
0.906632
0.555388
0.237496
-0.090603
-0.431271
-0.707109
-0.763659
-0.59363
-0.307924
-0.0245116
0.569213
0.230937
0.0793545
-0.0944213
-0.274695
-0.402854
-0.454556
-0.439021
-0.320925
-0.148062
0.028502
26.3705
19.0653
14.5688
11.5961
9.50123
7.94494
6.71539
5.72278
4.91826
4.29722
3.88409
22.7248
21.7964
19.1973
16.236
13.3991
10.9811
9.04944
7.53727
6.35362
5.44984
4.81796
17.6998
19.0687
18.5577
17.1515
15.1591
12.9791
10.9069
9.10856
7.62392
6.44918
5.61505
12.0302
14.6411
15.168
15.3831
14.6616
13.31
11.6618
9.9995
8.47508
7.18809
6.20479
8.06368
10.7095
11.2596
12.4073
12.5562
12.1736
11.2717
10.1034
8.79458
7.58819
6.61757
5.55527
7.90581
8.27891
9.57387
10.2091
10.4189
10.1214
9.42468
8.56416
7.60514
6.74915
4.22424
5.8326
6.35688
7.45758
8.18097
8.67799
8.79077
8.54011
8.01554
7.32941
6.64353
3.69967
4.68265
5.1252
6.012
6.66364
7.22626
7.52955
7.5513
7.30643
6.86983
6.3894
3.35468
4.08962
4.39507
5.08587
5.61766
6.13845
6.49197
6.64867
6.58719
6.34084
6.02562
2.97533
3.66245
3.91825
4.49031
4.91977
5.37013
5.70723
5.91198
5.94979
5.82813
5.63345
2.89878
3.46891
3.65346
4.12858
4.46833
4.84529
5.13928
5.34479
5.42479
5.37218
5.2554
3.1903
3.54357
3.60844
3.96648
4.20759
4.50577
4.74309
4.92409
5.01251
4.99619
4.92384
3.361
3.61958
3.6379
3.91358
4.07239
4.29867
4.47639
4.62057
4.69641
4.6893
4.64237
3.3578
3.62694
3.65891
3.89401
3.99958
4.1722
4.2974
4.40256
4.45558
4.44135
4.39492
3.59227
3.7538
3.72941
3.90738
3.96529
4.09342
4.17398
4.24245
4.26893
4.24032
4.18787
3.7453
3.84555
3.79547
3.9313
3.95271
4.04354
4.08685
4.1215
4.11864
4.06813
4.00088
3.72534
3.84525
3.81937
3.94003
3.9447
4.00822
4.02296
4.02679
3.9931
3.91456
3.81351
3.81594
3.90046
3.85994
3.95245
3.94378
3.98487
3.97696
3.95138
3.88484
3.77548
3.64319
3.91167
3.95707
3.90023
3.96736
3.95229
3.97674
3.94915
3.89229
3.78825
3.64403
3.48164
3.94034
3.96281
3.9114
3.97572
3.97352
3.98943
3.94279
3.84642
3.69562
3.50815
3.30289
3.93195
3.9412
3.91473
4.00481
4.03414
4.03905
3.95903
3.80593
3.59616
3.3603
3.11763
3.92836
3.9381
3.97775
4.12905
4.17677
4.14061
3.99073
3.75517
3.47617
3.19313
2.92285
3.77539
4.05519
4.20041
4.39461
4.38883
4.24999
3.98948
3.65843
3.31709
2.99876
2.70061
5.21739
4.86461
5.09213
5.00721
4.7447
4.36285
3.91147
3.46902
3.08586
2.75945
2.45264
-1.76371
5.62377
7.01924
6.99457
6.29758
5.51219
4.76646
4.14969
3.62394
3.1989
2.93591
-31.233
-14.1745
-7.12757
-2.01621
0.657409
1.80201
2.15468
2.18699
2.08459
1.93928
1.88685
-39.7169
-27.8665
-21.359
-13.4062
-7.57355
-3.80558
-1.66484
-0.493421
0.161808
0.423649
0.712218
-38.3142
-32.9533
-29.1609
-21.6819
-15.2616
-9.93771
-6.19184
-3.74779
-2.20755
-1.25255
-0.569608
-34.3603
-32.3593
-30.6322
-25.2858
-20.0697
-14.7172
-10.303
-6.97862
-4.64011
-3.04251
-1.92192
-30.653
-29.8237
-28.9803
-25.5089
-21.8333
-17.3315
-13.1448
-9.56952
-6.77765
-4.69733
-3.17386
-27.666
-27.2146
-26.6016
-24.2118
-21.6518
-18.1272
-14.5733
-11.2136
-8.34293
-6.03532
-4.254
-25.1293
-24.8429
-24.2858
-22.4777
-20.5836
-17.8165
-14.9114
-11.957
-9.25368
-6.92009
-5.01672
-22.9668
-22.7244
-22.1736
-20.7012
-19.1915
-16.9403
-14.5542
-12.0122
-9.58047
-7.36582
-5.42332
-21.0941
-20.8253
-20.2586
-18.9797
-17.6983
-15.7908
-13.7889
-11.5982
-9.45212
-7.44015
-5.61441
-19.4598
-19.1183
-18.5243
-17.332
-16.1876
-14.5081
-12.7836
-10.8739
-8.98545
-7.18447
-5.54518
-17.8037
-17.4512
-16.8416
-15.7113
-14.6794
-13.1565
-11.6353
-9.94769
-8.27921
-6.66502
-5.19159
-16.2182
-15.8044
-15.1721
-14.1645
-13.1827
-11.7656
-10.3974
-8.88966
-7.4113
-5.97584
-4.66269
-14.7364
-14.245
-13.601
-12.6473
-11.6463
-10.3442
-9.09766
-7.74061
-6.43057
-5.17307
-4.01007
-13.2072
-12.6663
-12.0296
-11.1032
-10.118
-8.90363
-7.74976
-6.52317
-5.3652
-4.28247
-3.27927
-11.7004
-11.0977
-10.46
-9.55091
-8.58786
-7.43463
-6.35801
-5.24997
-4.23667
-3.3302
-2.52293
-10.2311
-9.55443
-8.9031
-7.99645
-7.02996
-5.94675
-4.92501
-3.92957
-3.06374
-2.33453
-1.70583
-8.75219
-8.00352
-7.33749
-6.43186
-5.45678
-4.41133
-3.44464
-2.5715
-1.86727
-1.32282
-0.871706
-7.25508
-6.43517
-5.75003
-4.83934
-3.84448
-2.82076
-1.92206
-1.19586
-0.679846
-0.337966
-0.0811252
-5.74331
-4.85151
-4.13466
-3.20106
-2.1689
-1.16927
-0.376931
0.158296
0.453886
0.584748
0.65272
-4.20585
-3.25488
-2.47031
-1.47932
-0.404436
0.527541
1.12926
1.41322
1.46359
1.39201
1.29329
-2.72837
-1.5715
-0.677102
0.404714
1.45727
2.19864
2.50401
2.50064
2.33576
2.12428
1.8797
-0.601032
0.183802
1.37045
2.47684
3.20504
3.46194
3.34143
3.01843
2.6425
2.30039
2.17412
-1.40646
3.04681
3.91214
4.24895
4.37693
4.17392
3.74665
3.28987
2.89702
2.5764
2.31154
-1.98887
-1.77377
-1.21518
-0.887208
-0.735706
-0.66687
-0.613699
-0.936092
-1.59957
-1.48007
-1.38288
-1.0303
-0.839219
-0.731097
-0.67192
-0.634309
-0.797539
-1.17895
-1.35823
-1.28458
-0.971102
-0.793119
-0.705853
-0.654449
-0.61081
-0.735424
-1.07926
-1.14948
-1.12412
-0.87061
-0.727867
-0.663662
-0.620487
-0.573579
-0.668275
-0.93694
-1.45178
-0.450081
0.506226
0.965818
0.834762
0.388517
-0.464926
-1.41375
-1.84487
-1.06071
-0.343801
0.428084
0.809657
0.713139
0.332026
-0.3213
-0.967441
-1.32687
-1.01415
-0.309088
0.348646
0.678781
0.60152
0.265264
-0.284259
-0.921982
-1.21408
-0.833313
-0.279026
0.261115
0.564087
0.504941
0.205438
-0.257372
-0.719548
-0.992002
2.14876
2.13448
2.12623
-0.21705
-0.299327
1.85617
-0.621934
1.61378
1.84223
2.80153
-0.323813
1.62056
-0.193447
-0.138873
2.14445
1.0094
-0.0267544
-0.213195
1.00825
2.24008
0.741806
-0.55492
1.25937
-0.110969
2.20199
-0.134319
-0.183221
-0.612707
-0.3355
-0.298099
-0.0256873
1.26113
-0.0938799
1.17136
1.24919
2.12408
-0.0995342
2.19885
-0.0988306
1.58476
-0.316403
1.17922
-0.299968
1.26742
-0.346588
-1.16994
-0.249463
-0.858004
1.78754
1.56423
-0.300504
1.59449
-0.00619884
-0.297999
1.54076
0.749318
-0.53452
1.56047
-0.171615
-0.232751
0.337828
-0.0120155
-0.335321
-0.307525
-0.607777
2.22969
-0.220479
1.637
2.11955
2.76684
-0.0967779
3.08351
-0.2198
3.3237
-0.145653
2.88777
-0.472181
1.20515
-0.39673
-0.604474
0.0273614
-0.306319
2.18088
2.18113
0.279756
-0.214219
-0.114789
-0.00593069
-0.382575
0.0192846
2.09794
1.55152
-0.426585
2.45835
-0.600833
-0.68123
-0.17304
-0.114494
-0.352876
3.18586
0.596325
-0.780279
2.38038
0.642097
-0.320965
1.98364
-0.00373973
2.17657
0.0028884
0.368012
1.28595
1.17419
2.57556
-0.241256
-0.193835
2.17953
1.53775
1.1102
1.67436
2.13985
-0.249344
3.41519
0.151096
-0.0412505
-1.11015
-0.157645
0.019399
-0.00468708
-0.0017296
-0.000675491
1.40644
-0.231395
-0.834825
2.94024
2.04617
0.173655
-0.469959
-0.299131
-0.254812
1.97897
-0.249263
0.618666
-0.416466
1.72151
1.51302
-0.244525
-0.0812328
1.62103
3.06986
1.11528
1.25138
1.92133
-0.240875
3.30551
-0.232314
-0.266923
-0.216094
-0.383631
-0.0478355
2.26362
-0.122437
-0.331308
3.01299
2.24389
-0.200446
-0.0259374
-0.397242
0.411713
-0.111173
-0.613854
-0.0771469
-0.0126606
-0.0946083
0.619766
1.31063
1.2478
-0.00685729
-0.25956
-0.377894
1.30904
1.5845
-0.546699
2.06849
-0.282476
1.86393
-0.268029
1.24421
1.08319
2.19799
-0.391183
0.00266133
-0.161732
2.14883
-0.320476
2.10862
2.2868
1.92351
-0.355718
-2.89551e-05
2.17213
-0.269066
1.66687
-0.0183243
-0.0493654
2.055
0.00657593
2.40723
0.00137608
1.65439
2.15531
0.0141907
1.08627
0.540091
1.39502
1.21015
-0.110921
2.10805
-0.195521
1.33083
-0.189504
-0.0437152
-0.237897
-0.166429
-0.200838
-0.0342872
1.4897
-0.251616
-0.00931023
0.00201079
-0.333111
-0.375051
2.13765
1.26015
3.53929
-0.243581
-0.295312
-0.0755154
2.07516
1.44345
1.45113
-0.170114
-0.245699
0.581954
-0.325685
1.90961
-0.357429
1.15831
-0.0859578
-0.53439
0.0768092
-0.0793384
0.004014
1.01756
2.3253
0.163716
1.90533
0.808613
2.20518
-0.256026
1.22441
-0.00624036
-0.030375
2.14022
1.23711
1.27506
-0.216063
0.578784
1.57513
-0.0508662
0.000774509
-0.313853
1.34245
1.70829
-0.250945
2.25179
1.11006
-0.0593115
2.10107
1.98921
-0.328592
3.17551
1.7366
0.0312485
-0.0289172
0.199137
2.27523
-0.00046898
1.51298
1.80814
-0.246601
1.40443
-0.56289
0.253897
-0.192944
2.10752
1.64653
-0.116815
1.27913
1.33946
-0.0761949
1.76866
-0.277332
1.63387
-0.289032
0.834048
0.346678
1.22915
0.0364204
-0.525853
1.2997
-0.673056
1.97125
0.358172
-0.0707224
-0.59619
1.94303
-0.170871
-0.34401
2.02743
2.69566
1.19672
0.0780245
1.09064
-0.135144
-0.334437
0.541766
1.16423
-0.15235
2.12412
0.017115
1.43816
-0.334531
-0.404476
1.89322
-0.189942
-0.482555
-0.221863
1.23772
2.08812
-0.0992067
-0.209047
0.0342893
1.68033
-0.0648273
-0.311107
0.0342993
-0.225764
1.13128
-0.137429
0.0410265
-0.725287
-0.1164
0.0266205
0.856821
-0.0317237
2.17209
-0.0371243
1.60581
1.24782
0.026729
0.00990381
-0.151669
2.1049
2.17731
2.42709
-0.390721
-0.0119359
-0.243193
-0.734405
0.150693
2.12079
-0.284967
-0.513006
-0.0730042
-0.0908114
1.39137
0.168524
1.21368
2.30468
1.12322
0.0453926
2.30418
-0.259305
1.46227
-0.15845
-0.0918218
-0.257021
-0.0328972
-0.238907
-0.411484
1.92031
-0.576369
-0.0100958
3.74449
-0.0928992
-0.569117
1.21441
1.17513
1.72617
-0.27433
-0.259766
2.18017
1.88749
-0.217321
-0.01402
-0.238344
-0.434405
0.0214079
1.64149
0.0775828
0.608047
0.993708
-0.021354
-0.0196669
-0.221378
0.319668
0.00210595
3.56753
-0.0269745
-0.518692
-0.265084
-0.0267917
-0.661852
0.00333391
1.20965
0.413076
3.27282
-0.00968338
-0.0925641
-0.789004
1.1438
-0.295951
-0.149779
1.96472
-0.0140947
-0.0895257
-0.228308
-0.270384
-0.0449409
1.13226
0.346271
-0.124256
-0.195008
-0.263397
0.825647
-0.174578
-0.159441
-0.351775
2.31792
-0.343253
1.90395
2.18149
2.10065
-0.463438
-0.107337
-0.757796
-0.0810217
-0.327462
-0.00717001
2.20263
2.33113
0.0248084
-0.0713392
0.141618
0.713426
-0.00658154
-0.00877181
2.167
1.10279
1.45824
1.20272
-0.274402
1.04532
0.301748
0.75135
1.40853
1.33063
2.14301
-0.331329
1.23716
2.2154
0.761001
-0.310124
-0.526361
1.24266
-0.227125
-0.327271
1.76829
-0.135053
2.23189
-0.230084
2.29328
0.793335
1.47539
0.00160709
-0.0491958
2.16899
-0.144697
0.48401
1.57846
-0.124968
-0.153247
1.84219
2.19459
-0.535925
-0.0567307
-0.230649
1.39119
-0.796721
1.12867
-0.169597
-0.0492231
-0.41644
-0.0282859
0.604534
-0.103445
-0.264303
-0.140708
1.13658
-0.101649
1.99657
1.75066
2.17762
1.39542
0.653115
0.0228971
1.60988
2.23582
-0.206733
1.78145
-0.907181
0.121262
0.0102222
-0.0960114
-0.397888
2.16291
2.15772
1.7397
-0.375992
-0.325809
1.15488
2.22549
-0.0370399
1.87405
-0.19654
1.8749
0.0264714
1.95377
-0.436381
-0.133874
-0.025969
-1.21119
-0.161961
0.834518
0.554172
2.98223
1.3655
-0.0857687
-0.353127
2.09149
-0.0225571
-0.136569
-0.830233
2.18324
1.97223
1.973
-0.167334
-0.056157
-0.0108696
1.90436
1.41064
-0.0202678
2.44276
-0.185972
0.00037305
0.00511812
-0.341864
1.26661
-0.0172465
2.17262
-0.262546
2.19554
-0.146826
-0.00840235
1.39678
-0.609972
-0.0242837
1.62077
1.20069
-0.562493
2.24834
-0.123612
-0.246009
-0.297309
-0.202885
-0.192832
-0.179995
2.71869
1.6351
1.85443
-0.66089
-0.199091
-0.093519
2.20928
2.17138
-0.434601
1.20037
2.45388
0.635715
3.06459
-0.195787
-0.229537
-0.316109
-0.0324317
0.267196
1.03356
2.31198
-0.133419
2.90315
1.76766
-0.552165
0.0468803
1.07537
2.28629
-0.451638
2.33991
2.31829
0.436971
1.97681
0.525944
-0.193263
-0.198842
0.0752639
-0.0328694
-0.0284533
-0.453962
0.00514604
0.154306
-0.158523
-0.108324
-0.398883
-0.213507
-0.0661012
1.13305
0.861004
-0.338175
0.277943
1.02611
0.270453
-0.150565
-0.289193
-0.546297
-0.0293522
0.134742
1.17602
0.908547
2.17729
1.17121
2.31666
-0.193389
2.8352
1.33437
0.949996
1.35513
-0.241908
-0.0181798
-0.336269
2.92934
1.2093
1.61214
-0.0856425
2.67801
-0.449919
2.7281
-0.166407
0.0204225
1.22905
-0.0207463
2.19732
-0.0950491
-0.263255
-0.195469
-0.599719
-0.112416
0.350404
2.17626
-0.00703821
-0.0767158
-0.469293
0.070401
1.11617
0.345131
2.17965
-0.00174969
0.998337
-0.197578
1.91937
1.67419
2.2745
-0.178182
-0.284219
2.17128
-0.0094896
2.14683
-0.00211828
-0.0511487
0.561748
-0.251347
-0.363909
-0.175329
0.193309
-0.195072
-0.180529
-0.120046
-0.0720286
-0.646464
1.13623
-0.183096
1.38911
1.38441
-0.674549
-0.0982071
-0.241354
-0.132352
2.42052
0.533748
2.10575
-0.218747
2.20285
0.0306871
-0.214791
0.0302133
0.465279
0.129887
-0.252729
-0.191963
3.57434
-0.182915
-0.267608
-0.328405
1.30719
-0.154184
-0.144998
2.11448
-0.91043
-0.0262803
2.95078
-0.164708
1.41721
0.894822
2.25061
-0.0351029
3.25577
-0.0778065
2.00069
-0.104346
3.08818
-0.195246
-0.072653
0.0448576
0.00395112
1.0667
-0.226822
-1.08132
2.21151
-0.081198
0.189568
-0.204196
0.961157
-0.379244
0.365749
-0.201975
-0.147422
0.981534
1.14165
0.230303
1.17007
-0.216001
-0.31187
2.11594
1.66175
0.648528
-0.331608
0.0756711
-0.179705
1.59635
-0.177414
0.172819
1.16004
2.19813
1.93857
1.3819
1.86325
-0.0170975
-0.558221
-0.285035
-0.0122981
-0.0517217
2.25493
1.47606
0.0759523
-0.0488307
2.07491
0.0309437
-0.12913
-0.780743
-0.0413053
0.0313805
1.02024
-0.21785
2.25713
1.40654
-1.03238
2.08525
1.61467
0.2552
0.00348188
0.298905
0.346434
2.12017
-0.0887926
-0.431806
-0.21177
1.58046
-0.00432299
-0.172022
-0.272295
-0.207434
2.19238
1.12605
-0.210514
-0.231882
-0.211193
2.18078
0.968427
2.77425
2.2002
1.5559
-0.174213
-0.129671
-0.881358
-0.72568
-0.207863
1.82531
-0.323502
2.19682
2.73381
0.161015
1.46539
2.09265
1.59971
-0.343671
-0.0368631
-0.276149
2.10503
-0.217748
2.23344
1.99027
2.00005
2.29457
0.241712
1.24363
2.06345
2.15035
-0.369145
1.16576
2.28964
-0.0737225
-0.4532
1.41151
2.09497
-0.297766
-0.413557
1.20032
0.179984
-0.225268
-0.208859
1.36297
2.17824
0.545387
1.66589
-0.0352331
1.5003
-0.204024
-0.200011
0.0231976
-0.142687
1.27587
-0.165167
2.11463
1.23945
3.54974
1.3639
1.21381
-0.122332
-0.982097
0.173984
-0.117723
0.0301966
-0.2491
0.263528
-0.465687
1.20171
1.28881
-0.0177279
-0.0382505
-0.168136
1.6583
-0.348721
2.53041
-0.188573
2.38615
-0.0223577
-0.0214385
-0.32609
-0.0763495
2.29542
2.17767
-0.0178699
-0.461611
0.0367039
-0.0128553
-0.212417
0.357572
0.893943
0.0487301
2.1584
2.05053
-0.122079
-0.807889
-0.287493
-0.319492
-0.00147528
-0.154448
-0.115809
-0.258312
2.19321
0.331047
0.0286035
2.24498
0.998383
1.99777
0.000306089
-0.17984
0.0202983
2.19975
-0.0842561
1.83319
1.58126
0.00166844
-0.236365
1.20727
2.08572
2.16777
0.0181582
-0.0694392
-0.50066
0.193167
2.40507
-0.2399
-0.201819
-0.435837
2.1862
0.0121667
-0.109608
1.81738
-0.0118755
1.6762
-0.297847
-0.158943
0.260042
-0.201224
1.88029
2.3028
-0.202257
-0.0101825
1.20932
0.0195132
2.09755
-0.33629
0.00640628
-0.886552
2.15777
-0.0228004
-0.254516
-0.280117
-0.0265888
-0.0234043
2.17416
-0.00121027
-0.320596
1.21667
0.51106
-0.14782
-0.205655
-0.0463049
-0.136704
1.65534
2.34534
-0.370832
0.831188
-0.479456
-0.199131
0.00660382
-0.084167
1.56368
-0.193006
-0.341153
-0.0298695
0.00188687
-0.175923
2.30056
-0.115302
-0.03481
2.20857
2.30399
2.02938
-0.158608
0.494381
1.80763
-0.119501
-0.125974
-0.0867224
1.29447
-0.698835
-0.156688
0.699131
-0.187383
1.15139
2.85789
1.90816
-0.697304
1.23916
-0.131053
0.270845
-0.3471
1.24334
0.863455
2.18499
2.22327
-0.232134
-0.121682
-0.206496
-0.350398
-0.865218
-0.263329
2.55875
0.22548
-0.281387
2.19323
-0.064179
-0.0504058
1.53314
0.16536
-0.107805
-0.0940403
0.917997
-0.0247727
2.19206
-0.0139517
1.32635
-0.543899
-0.122366
3.60081
-0.527441
-0.0563305
0.646771
-0.157199
-0.180299
-0.0509211
-0.0354586
1.04721
-0.431823
0.000132573
-0.254181
-1.15931
-0.0845716
1.95046
-0.19093
1.7729
-0.148467
-0.126686
-0.264019
0.955737
-0.235401
-0.349698
2.25648
1.61507
0.509238
1.31859
-0.192699
-0.138031
2.7997
-0.118433
-0.227322
1.33329
-0.31708
-0.565676
0.124058
-0.0423607
-0.272166
-0.22297
-0.0138676
0.0608268
2.24179
2.21669
-0.121001
2.29502
2.06542
-0.152969
2.17586
1.97274
-0.0915317
3.66049
-0.536067
-0.0342228
-0.22316
2.34248
-0.0913889
-0.249994
-0.161391
-1.02863
2.20386
-0.203243
-0.233791
-0.146477
-0.0235092
1.02075
0.00888713
2.08342
-0.26579
0.0111588
1.75287
2.3314
-0.254718
0.148024
-0.211175
-0.342857
-0.150271
2.50822
2.03959
2.22119
0.0523075
-0.042395
-0.083671
-0.296176
-0.0317166
3.42699
0.977256
2.10564
1.93337
-0.330059
2.29141
1.20431
-0.860431
-0.027811
-0.767939
-0.337557
1.30948
1.10516
-0.0288205
-0.306568
0.0878469
-0.542035
-0.104838
1.94741
1.3454
-0.170156
0.0590801
-0.0168244
-0.187935
2.30789
-0.109311
-0.214059
-0.203181
0.83392
-0.17789
-0.396438
1.61766
-0.106555
1.18747
2.71233
-0.31285
-0.111909
-0.143034
0.789901
1.86882
0.0969588
-0.282567
-0.24206
-0.216226
-0.287965
-0.0519036
1.55192
-0.677051
-0.272753
2.19739
-0.00232329
-0.238654
2.06549
0.0941199
2.21054
2.19086
2.91834
-0.352585
-0.0016338
1.1031
-0.253372
2.19939
1.22746
2.17416
-0.0506411
1.13318
-0.0134435
-0.155022
2.21009
-0.34815
-0.48857
-0.0505554
-0.323348
-0.0388584
-0.151573
-0.0083291
1.6256
1.24969
2.0117
-0.146138
2.17529
1.21843
0.0245845
-0.420765
-0.288896
-0.114939
-0.021125
1.66894
-0.276966
-0.158856
1.128
0.120148
1.06772
-0.0290884
2.03406
-0.071201
0.740364
2.53657
1.7712
-0.316323
0.00803802
1.83356
-0.071144
1.11073
-0.0755195
0.0399088
-0.238573
-0.234931
2.259
2.13738
-0.128019
-0.121882
-0.0274404
0.00432518
-0.29534
-0.0915341
2.22022
-0.483138
-0.0132837
2.248
-0.213829
-0.199951
-0.0474307
-0.32284
-0.266875
-6.26948e-05
-0.389417
-0.360456
1.13298
1.56599
-0.142903
-0.120546
0.166397
1.20809
-0.0870288
2.09835
3.36779
-0.608423
2.19974
1.5888
-0.563029
-0.254411
1.71015
2.16918
1.81258
0.701123
1.32161
2.48616
-0.181899
0.475854
1.09185
1.93799
-0.237511
1.37092
-0.201407
2.13659
0.986108
1.60692
-0.103463
-0.445507
-0.0990993
2.31074
1.23483
-0.181548
0.00777274
2.20167
-0.0737943
-0.0999768
2.04922
0.0437154
-0.104002
-0.337043
-0.152911
-0.238252
1.57157
-0.240747
1.89144
0.775947
2.60537
1.06491
2.21721
-0.104294
2.54398
-0.304006
2.09239
2.21869
-0.331671
1.26916
2.15906
-0.27446
0.0209002
-0.224608
2.30612
0.816024
1.9092
-0.126221
0.000842787
-0.216599
1.28497
-0.160081
-0.15491
1.29869
1.09575
1.23548
0.698068
-0.23726
2.69239
0.140957
3.07779
-0.817088
-0.153002
-0.14466
-0.30098
1.71653
0.209662
2.09019
0.161819
-0.365939
2.26646
2.21293
-0.272919
0.500624
0.888962
2.60757
-0.156116
2.18989
-0.234961
-0.345236
-0.0935555
-0.0550575
1.11223
-0.148671
1.87575
-0.575517
-0.204464
0.199719
0.066937
2.16543
1.25946
2.23818
1.05503
0.414223
0.641285
2.51676
0.00453546
-0.248433
1.35117
0.718533
-0.556033
0.432088
2.18489
0.320561
2.68589
3.46699
-0.0818965
2.2772
-0.261174
-0.143382
0.833357
2.07482
-0.148749
-0.250649
2.35491
0.00350139
2.23208
3.13002
-0.117239
0.850509
-0.162017
2.19742
2.38588
-1.09006
0.188742
1.21416
0.127191
0.799911
1.38302
1.14
1.24487
1.12674
0.195216
-0.206201
-0.161259
-0.349489
1.36189
1.79148
-0.230352
-0.00127353
0.886216
0.528829
0.0451226
2.42214
0.026028
1.58989
-0.106836
1.90578
2.39579
-0.032034
-0.188034
-0.0662642
2.16428
2.31392
2.28837
2.1573
1.51245
-0.270286
-0.235954
-0.251043
-0.179128
-0.262895
0.493917
1.35781
1.39294
-0.388909
2.604
-0.121586
-0.543932
0.533581
0.0446297
-0.246544
0.872142
2.17775
0.198021
-0.174164
-0.100245
0.787714
-0.0860339
0.0059778
-0.289681
-0.00556222
-0.101943
1.28794
-0.0886074
-0.0044939
-0.511902
-0.184764
-0.192053
-0.0047328
2.19465
2.58866
-0.188703
2.16601
-0.0969603
-0.0468911
-0.081422
-0.143804
-0.061928
-0.207823
0.0763398
-0.0251347
1.89802
-0.104498
-0.179874
0.122402
-0.0166793
-0.275327
2.19851
-0.371683
1.91461
0.0533506
-0.549329
-0.155367
-0.416311
-0.209993
0.113059
2.04834
2.77727
1.27993
2.40925
2.28003
1.05753
1.29376
-0.239379
2.27287
0.0177676
-0.197558
1.0749
2.18632
-0.0158234
-0.161278
2.03395
0.461372
1.24909
3.4441
0.184541
-0.196372
2.18435
1.03248
0.976614
1.15118
2.8431
2.08574
0.208013
-0.250151
1.85651
0.368236
2.06595
1.09699
1.73292
2.10416
-0.148752
2.18815
1.51617
0.812123
2.17283
-0.0150407
1.42325
0.0011455
-0.255444
-0.776074
-0.257524
-0.136209
-0.194624
-0.00924756
-0.222821
0.0702211
0.0450965
1.15958
-0.302778
0.633202
1.73873