/*--------------------------------*- C++ -*----------------------------------*\
| =========                 |                                                 |
| \\      /  F ield         | OpenFOAM: The Open Source CFD Toolbox           |
|  \\    /   O peration     | Version:  3.0.1                                 |
|   \\  /    A nd           | Web:      www.OpenFOAM.org                      |
|    \\/     M anipulation  |                                                 |
\*---------------------------------------------------------------------------*/
FoamFile
{
    version     2.0;
    format      ascii;
    class       volScalarField;
    location    "0";
    object      yPlus;
}
// * * * * * * * * * * * * * * * * * * * * * * * * * * * * * * * * * * * * * //

dimensions      [0 0 0 0 0 0 0];

internalField   uniform 0;

boundaryField
{
    FrontAndBack
    {
        type            empty;
    }
    patch1
    {
        type            calculated;
        value           nonuniform List<scalar> 
248
(
0.255814
0.251272
0.246605
0.243559
0.244151
0.241914
0.240501
0.240356
0.237209
0.236154
0.235654
0.233075
0.230846
0.233802
0.240707
0.247512
0.248446
0.248163
0.252917
0.258808
0.260643
0.26257
0.264896
0.266971
0.269085
0.270904
0.274696
0.274379
0.276038
0.280661
0.282389
0.282802
0.2816
0.283476
0.286713
0.288789
0.290888
0.294284
0.297604
0.297769
0.296975
0.300393
0.300555
0.299964
0.303426
0.300308
0.300111
0.303564
0.303743
0.304003
0.304298
0.304597
0.308358
0.312092
0.309142
0.309558
0.313353
0.313851
0.314325
0.314846
0.318749
0.31929
0.319856
0.320435
0.317669
0.318279
0.318922
0.319556
0.3202
0.320876
0.321569
0.322279
0.322975
0.323721
0.324505
0.325313
0.32613
0.323672
0.321228
0.322113
0.319806
0.32075
0.324985
0.322817
0.320607
0.31837
0.316289
0.317453
0.315393
0.313505
0.314818
0.312938
0.311164
0.309345
0.306741
0.305553
0.30143
0.299686
0.301133
0.300452
0.296568
0.291784
0.286961
0.285431
0.280698
0.272829
0.272407
0.267808
0.26004
0.256582
0.253208
0.24861
0.244115
0.236435
0.225702
0.2149
0.207201
0.199838
0.223782
0.257124
0.270743
0.274979
0.272823
0.274297
0.260042
0.259893
0.259082
0.261131
0.260635
0.257112
0.2541
0.25363
0.253872
0.252516
0.250479
0.252167
0.251359
0.248292
0.248744
0.247793
0.24713
0.244393
0.244662
0.247816
0.24879
0.247214
0.244184
0.246053
0.246662
0.24794
0.250851
0.248836
0.252403
0.256236
0.257172
0.258357
0.256492
0.258181
0.260476
0.262912
0.265381
0.267757
0.273413
0.279631
0.282587
0.278888
0.278613
0.281724
0.284932
0.288186
0.28816
0.29156
0.294976
0.295081
0.29859
0.302107
0.305657
0.309209
0.306145
0.306436
0.310021
0.310296
0.313959
0.314282
0.311262
0.31492
0.318555
0.318894
0.319206
0.319508
0.31982
0.320119
0.320403
0.320672
0.320948
0.321197
0.31811
0.314987
0.318552
0.322063
0.318911
0.31575
0.315888
0.312703
0.312869
0.312943
0.306333
0.303063
0.303142
0.299874
0.296532
0.293208
0.289863
0.286497
0.283159
0.279805
0.273099
0.269701
0.2664
0.259583
0.256142
0.252876
0.245989
0.239211
0.232389
0.225574
0.218865
0.212187
0.201991
0.191807
0.188325
0.181557
0.171509
0.161405
0.154725
0.147955
0.134368
0.120877
0.110823
0.100761
0.0924195
0.110129
0.191774
0.23107
0.251714
0.262666
0.265853
0.267636
)
;
    }
    patch2
    {
        type            calculated;
        value           nonuniform List<scalar> 
248
(
0.253773
0.253901
0.251687
0.248396
0.243771
0.241316
0.241123
0.239339
0.234793
0.235083
0.234248
0.231374
0.234886
0.236729
0.239741
0.245938
0.245404
0.247482
0.253949
0.258825
0.260672
0.262552
0.267405
0.269943
0.27225
0.273859
0.275515
0.277604
0.279642
0.281657
0.283753
0.282542
0.284478
0.286629
0.285547
0.287871
0.290322
0.28886
0.290728
0.296558
0.29923
0.298794
0.296504
0.297411
0.300302
0.30331
0.302082
0.300921
0.302881
0.304876
0.306866
0.30888
0.310886
0.311453
0.310477
0.311067
0.313149
0.315292
0.315766
0.317929
0.318849
0.316434
0.316865
0.316243
0.315624
0.316048
0.316414
0.315907
0.315412
0.317735
0.320043
0.322397
0.322074
0.319747
0.322159
0.321946
0.319664
0.319994
0.322469
0.324924
0.324879
0.324837
0.322672
0.322727
0.322827
0.318238
0.31614
0.318798
0.316646
0.314578
0.314939
0.310532
0.308584
0.309074
0.30956
0.307679
0.305795
0.301681
0.29753
0.295943
0.292115
0.290373
0.29117
0.285028
0.276368
0.275047
0.273743
0.267831
0.263981
0.260249
0.254286
0.248503
0.240032
0.234227
0.226249
0.217778
0.210426
0.198634
0.239377
0.262893
0.271235
0.27516
0.276211
0.271705
0.25351
0.256015
0.261009
0.262661
0.258169
0.257549
0.257211
0.254186
0.251671
0.253114
0.251854
0.251462
0.251637
0.248942
0.250364
0.248681
0.247462
0.246577
0.246132
0.246052
0.24496
0.245649
0.244959
0.244612
0.248438
0.251367
0.24974
0.250494
0.253939
0.255322
0.254548
0.256846
0.259073
0.26102
0.263639
0.266466
0.269493
0.268035
0.268611
0.273904
0.279284
0.284717
0.285632
0.283698
0.284779
0.288853
0.290069
0.29135
0.294212
0.297119
0.298526
0.299977
0.302931
0.305922
0.310498
0.312057
0.310641
0.313685
0.316731
0.313927
0.315594
0.318646
0.317279
0.318963
0.322007
0.320645
0.319241
0.317866
0.319526
0.322536
0.321129
0.319689
0.319638
0.318194
0.318372
0.316855
0.315373
0.316853
0.316739
0.3152
0.31217
0.310567
0.310415
0.308801
0.302681
0.299562
0.29786
0.293172
0.291465
0.289746
0.286531
0.280292
0.274047
0.267769
0.264475
0.261175
0.254829
0.250073
0.245265
0.240424
0.232519
0.227769
0.221409
0.213517
0.207135
0.197887
0.191502
0.183655
0.17276
0.163405
0.157207
0.146392
0.13098
0.121593
0.112466
0.0983624
0.0892188
0.161365
0.210994
0.243325
0.258065
0.261999
0.265847
0.259713
)
;
    }
    patch3
    {
        type            calculated;
        value           nonuniform List<scalar> 
248
(
0.257251
0.254718
0.252943
0.246519
0.243819
0.242924
0.239683
0.238878
0.237749
0.236613
0.236488
0.233912
0.234353
0.238564
0.242755
0.245353
0.24855
0.251826
0.252275
0.256183
0.263186
0.266561
0.269431
0.272148
0.272536
0.271959
0.274459
0.279923
0.282358
0.281853
0.281556
0.282378
0.285902
0.288547
0.288691
0.289464
0.29033
0.291135
0.292028
0.292897
0.293834
0.294796
0.295826
0.29686
0.300204
0.303882
0.302917
0.301587
0.302324
0.303634
0.304967
0.308348
0.309765
0.31125
0.312768
0.316181
0.314973
0.310823
0.31593
0.320462
0.320512
0.316416
0.315287
0.317108
0.320545
0.319461
0.315352
0.318783
0.320752
0.321112
0.324536
0.325242
0.319897
0.317136
0.320596
0.321544
0.320671
0.32416
0.32647
0.325656
0.324885
0.323042
0.323371
0.323734
0.31882
0.313938
0.313291
0.315932
0.318542
0.318008
0.314238
0.310508
0.312407
0.311126
0.30663
0.305484
0.305106
0.304825
0.30378
0.302789
0.298576
0.291123
0.286955
0.286189
0.282099
0.274751
0.270782
0.270091
0.265576
0.257758
0.253886
0.246732
0.239018
0.234589
0.224156
0.213629
0.209795
0.203092
0.240347
0.265106
0.270051
0.270687
0.272126
0.269108
0.257378
0.258104
0.259325
0.257751
0.256632
0.256208
0.258577
0.256948
0.253119
0.254332
0.254036
0.252397
0.253315
0.251951
0.246582
0.246138
0.250389
0.247476
0.244131
0.245252
0.24377
0.245678
0.247774
0.247208
0.247019
0.249625
0.249554
0.250442
0.251817
0.25263
0.252723
0.253962
0.259766
0.261456
0.262093
0.264136
0.266374
0.270279
0.272842
0.272462
0.273674
0.278228
0.281231
0.285612
0.28709
0.288627
0.291968
0.293582
0.295275
0.295995
0.300548
0.305138
0.308814
0.307883
0.305074
0.308901
0.312691
0.312699
0.312703
0.311921
0.313854
0.315826
0.31974
0.32169
0.320921
0.32287
0.322866
0.322107
0.321295
0.323243
0.325144
0.322381
0.316869
0.316011
0.317858
0.317769
0.316881
0.315934
0.313069
0.310178
0.31196
0.31094
0.307154
0.30416
0.304021
0.302933
0.299023
0.29789
0.293004
0.287219
0.283243
0.277389
0.273375
0.267493
0.264455
0.263197
0.254494
0.247578
0.243487
0.240354
0.237295
0.228532
0.219766
0.213877
0.206908
0.199937
0.18936
0.178858
0.172919
0.164186
0.152598
0.143877
0.133352
0.120102
0.1085
0.0997284
0.0954241
0.152902
0.209708
0.236926
0.252769
0.262223
0.265975
0.259972
)
;
    }
    Shaft
    {
        type            calculated;
        value           nonuniform List<scalar> 
28
(
1.19115
1.19003
1.18861
1.18703
1.18637
1.18581
1.18542
1.18542
1.18581
1.18637
1.18703
1.18861
1.19003
1.19115
1.19115
1.19003
1.18861
1.18703
1.18637
1.18581
1.18542
1.18542
1.18581
1.18637
1.18703
1.18861
1.19003
1.19115
)
;
    }
    Inlet
    {
        type            calculated;
        value           uniform 0;
    }
    Lat-Wall
    {
        type            calculated;
        value           nonuniform List<scalar> 
188
(
428.699
573.194
634.686
579.589
384.246
525.655
537.864
496.497
547.166
493.679
564.249
416.624
492.337
588.444
610.67
496.049
474.136
413.046
547.613
431.964
486.255
550.296
474.538
515.593
374.586
384.112
375.346
609.418
527.444
443.233
490.325
474.136
379.282
449.36
566.485
404.236
495.87
615.5
418.189
439.03
521.183
528.07
569.437
497.167
603.783
512.865
492.248
422.259
440.461
417.832
575.206
502.847
533.571
466.175
514.43
529.903
386.84
404.236
473.331
491.711
403.208
448.197
355.937
464.7
523.732
425.971
472.615
472.436
384.246
478.563
363.137
409.916
327.316
520.422
382.099
415.327
448.242
374.586
367.297
495.781
394.308
451.73
448.063
478.027
497.167
428.699
439.03
329.909
315.778
372.082
357.726
386.08
401.24
488.313
431.293
422.617
337.11
463.582
445.917
426.016
330.401
333.532
359.023
394.755
453.788
395.471
346.501
436.525
366.536
344.399
426.105
502.444
442.071
367.833
296.458
416.535
381.607
405.444
371.858
498.688
392.654
303.479
368.37
355.445
384.246
404.326
373.558
340.821
350.079
425.658
352.494
360.409
327.718
333.308
305.536
412.242
261.62
405.265
315.778
422.035
396.321
301.198
394.845
452.938
325.214
310.635
390.775
393.011
396.276
363.585
283.086
367.923
362.332
343.415
370.74
371.456
326.332
355.132
305.805
320.384
295.206
345.517
402.537
386.571
293.551
275.707
338.362
394.442
334.784
327.45
393.682
379.64
322.888
331.43
258.892
328.747
354.953
267.836
299.857
267.568
300.17
306.789
277.094
281.387
271.772
399.406
241.138
232.149
)
;
    }
    Outlet
    {
        type            calculated;
        value           uniform 0;
    }
    AMI-St
    {
        type            cyclicAMI;
        value           uniform 0;
    }
    AMI-Rt
    {
        type            cyclicAMI;
        value           uniform 0;
    }
}


// ************************************************************************* //
