/*--------------------------------*- C++ -*----------------------------------*\
| =========                 |                                                 |
| \\      /  F ield         | OpenFOAM: The Open Source CFD Toolbox           |
|  \\    /   O peration     | Version:  3.0.1                                 |
|   \\  /    A nd           | Web:      www.OpenFOAM.org                      |
|    \\/     M anipulation  |                                                 |
\*---------------------------------------------------------------------------*/
FoamFile
{
    version     2.0;
    format      ascii;
    class       volScalarField;
    location    "0.594047";
    object      p;
}
// * * * * * * * * * * * * * * * * * * * * * * * * * * * * * * * * * * * * * //

dimensions      [0 2 -2 0 0 0 0];

internalField   nonuniform List<scalar> 
21246
(
11.3689
12.1048
11.063
9.51339
7.8143
6.35944
5.13719
4.13125
3.29262
2.62753
2.27447
-15.7806
-3.65228
-0.0389432
2.90418
3.77622
3.82381
3.38238
2.86272
2.33515
1.86797
1.59993
-26.7429
-15.8892
-12.0597
-5.9794
-2.62
-0.420466
0.58041
0.93162
0.97678
0.896125
0.857924
-26.9465
-21.1029
-19.0413
-12.69
-8.83892
-5.25294
-2.95666
-1.53745
-0.77667
-0.347399
-0.0626895
-23.7581
-21.1283
-20.5253
-15.7336
-12.8255
-8.9862
-6.21017
-4.05857
-2.66167
-1.73187
-1.0622
-20.4939
-19.1604
-19.1012
-15.9604
-14.2489
-10.9181
-8.40142
-6.06592
-4.30866
-3.03749
-2.07095
-17.5478
-16.8295
-16.8748
-14.8265
-13.9053
-11.3203
-9.38668
-7.23223
-5.47273
-4.04138
-2.89334
-14.7895
-14.4915
-14.5762
-13.1969
-12.6891
-10.7881
-9.41917
-7.6016
-6.05103
-4.66394
-3.49258
-12.4044
-12.3352
-12.3993
-11.4659
-11.168
-9.79226
-8.84189
-7.39233
-6.12149
-4.88262
-3.78412
-10.5147
-10.4398
-10.463
-9.81883
-9.6182
-8.62465
-7.95401
-6.8324
-5.83071
-4.78135
-3.80253
-8.77796
-8.70954
-8.72126
-8.28153
-8.14603
-7.43216
-6.9528
-6.09835
-5.32232
-4.46629
-3.65887
-7.16877
-7.11333
-7.12359
-6.854
-6.78266
-6.28143
-5.94281
-5.30029
-4.70259
-4.01093
-3.34689
-5.92274
-5.8147
-5.80779
-5.62947
-5.5871
-5.23423
-4.99107
-4.50851
-4.04581
-3.48997
-2.946
-5.01509
-4.83671
-4.8041
-4.66114
-4.6085
-4.34022
-4.14509
-3.77067
-3.40232
-2.95622
-2.5294
-4.26782
-4.03981
-3.99969
-3.88019
-3.81299
-3.59244
-3.41363
-3.1041
-2.79439
-2.42534
-2.06993
-3.72079
-3.45123
-3.39341
-3.27395
-3.18094
-2.97602
-2.7874
-2.50655
-2.22679
-1.91295
-1.62381
-3.34893
-3.0522
-2.96832
-2.82718
-2.69473
-2.47391
-2.24948
-1.96571
-1.69397
-1.41896
-1.17408
-3.05982
-2.74459
-2.6297
-2.47217
-2.29519
-2.0402
-1.76436
-1.45697
-1.18189
-0.940266
-0.746641
-2.8135
-2.48835
-2.34568
-2.1612
-1.93813
-1.63339
-1.29527
-0.954886
-0.678321
-0.475126
-0.347352
-2.57594
-2.25038
-2.08681
-1.87357
-1.59054
-1.21344
-0.807357
-0.440699
-0.178897
-0.0226632
0.0541197
-2.33945
-2.01812
-1.83686
-1.57559
-1.20208
-0.733086
-0.271764
0.0865544
0.302625
0.402786
0.44356
-2.05474
-1.78556
-1.54646
-1.18314
-0.679974
-0.135258
0.311652
0.585792
0.71475
0.741957
0.713548
-1.89729
-1.51922
-1.15183
-0.598719
0.017429
0.534112
0.853175
1.00379
1.06709
1.11262
1.37427
-0.971295
-0.609259
0.0445283
0.629697
0.975056
1.12304
1.13292
1.07517
0.993247
0.914962
1.14123
27.9344
22.0357
16.8616
12.9327
10.108
8.02155
6.38553
5.06788
4.00527
3.18167
2.65636
17.2571
18.5879
17.5589
15.2582
12.3098
9.64585
7.49578
5.84753
4.5882
3.65201
3.05588
6.47171
11.3164
12.5346
12.8159
11.6509
9.87679
8.03446
6.36905
4.98904
3.94788
3.25837
-1.11633
4.11785
6.12885
8.29367
8.95061
8.47408
7.40744
6.13558
4.91889
3.93217
3.28766
-5.35098
-1.13087
0.561278
3.41774
5.03353
5.83441
5.73554
5.16115
4.36911
3.61141
3.06289
-7.48199
-4.26381
-3.17443
-0.395358
1.37242
2.85726
3.51947
3.63527
3.36144
2.9384
2.57369
-8.49971
-5.94336
-5.36061
-2.86509
-1.44336
0.308238
1.33937
1.94546
2.1277
2.06086
1.93465
-8.86192
-6.77326
-6.61204
-4.27411
-3.33896
-1.62126
-0.484833
0.38947
0.891237
1.12709
1.23701
-9.08934
-7.21831
-7.32856
-5.23963
-4.45159
-2.95471
-1.85911
-0.882798
-0.198365
0.244738
0.546116
-9.2702
-7.69434
-7.51629
-5.98073
-5.16648
-3.84685
-2.83123
-1.84162
-1.07313
-0.499486
-0.0691547
-9.33786
-8.12477
-7.66057
-6.40651
-5.62852
-4.43153
-3.48831
-2.51947
-1.72399
-1.07885
-0.570219
-9.195
-8.19037
-7.71634
-6.60357
-5.87572
-4.77615
-3.8969
-2.96047
-2.16864
-1.4923
-0.954877
-9.04121
-8.0924
-7.64636
-6.62189
-5.94283
-4.9169
-4.09622
-3.19675
-2.42758
-1.74612
-1.20769
-8.91248
-7.92333
-7.4863
-6.50823
-5.86192
-4.89266
-4.11868
-3.25813
-2.52104
-1.85429
-1.31396
-8.5413
-7.60882
-7.2165
-6.28283
-5.65729
-4.73671
-3.99431
-3.17329
-2.47034
-1.83194
-1.30609
-8.12135
-7.22012
-6.85538
-5.95868
-5.3414
-4.46423
-3.74163
-2.96157
-2.29608
-1.70019
-1.20712
-7.70141
-6.7913
-6.42181
-5.54963
-4.92207
-4.08158
-3.37105
-2.63431
-2.01604
-1.47714
-1.0354
-7.18792
-6.27912
-5.89788
-5.04953
-4.3979
-3.58893
-2.88906
-2.19778
-1.6537
-1.17139
-0.78731
-6.58019
-5.67532
-5.27033
-4.44429
-3.76078
-2.98301
-2.30724
-1.68918
-1.19474
-0.800732
-0.501139
-5.89688
-4.98108
-4.52783
-3.71648
-2.99966
-2.25875
-1.62868
-1.09477
-0.686963
-0.391083
-0.183672
-5.10826
-4.16197
-3.63691
-2.83901
-2.10707
-1.42524
-0.878363
-0.452287
-0.153997
0.0364861
0.146726
-4.14578
-3.14908
-2.54038
-1.78308
-1.09239
-0.517744
-0.0938787
0.201671
0.383639
0.472773
0.494426
-3.0644
-1.91655
-1.27863
-0.656905
-0.0998426
0.320127
0.598867
0.769975
0.845999
0.84251
0.801626
-1.03908
-0.129739
0.293051
0.641128
0.942993
1.1553
1.28054
1.39513
1.4392
1.37118
1.15829
-6.87235
-2.31777
-0.573308
0.201598
0.522184
0.638841
0.636652
0.578379
0.483505
0.377838
0.346845
-16.4476
-9.19781
-6.24161
-4.00287
-2.29221
-1.24225
-0.675244
-0.368234
-0.222229
-0.164127
-0.110288
-14.3252
-11.4258
-9.711
-7.44208
-5.20877
-3.49693
-2.31355
-1.54362
-1.07326
-0.788791
-0.570312
-10.1008
-9.88172
-9.56055
-8.35035
-6.72294
-5.11856
-3.74927
-2.69775
-1.95879
-1.46488
-1.10134
-7.70275
-7.93597
-7.97623
-7.57169
-6.76575
-5.69583
-4.55602
-3.52563
-2.69835
-2.08106
-1.59847
-6.44098
-6.56808
-6.609
-6.4862
-6.14432
-5.54281
-4.75798
-3.9278
-3.16736
-2.53954
-2.016
-5.87581
-5.78599
-5.76253
-5.69368
-5.50643
-5.15321
-4.63085
-4.01041
-3.37724
-2.80519
-2.30275
-5.66995
-5.41164
-5.34667
-5.22892
-5.05628
-4.7916
-4.41219
-3.93418
-3.41107
-2.9056
-2.44243
-5.5602
-5.24154
-5.14127
-4.96541
-4.77521
-4.53936
-4.21805
-3.81207
-3.35449
-2.89414
-2.46651
-5.4778
-5.15025
-5.01712
-4.81546
-4.61546
-4.38396
-4.08072
-3.6997
-3.26477
-2.81733
-2.39888
-5.44346
-5.12181
-4.96271
-4.74604
-4.53881
-4.30089
-3.99518
-3.61078
-3.16777
-2.70683
-2.27517
-5.42297
-5.10411
-4.94043
-4.72133
-4.50339
-4.25443
-3.93744
-3.53523
-3.0656
-2.57175
-2.09784
-5.39478
-5.08064
-4.91904
-4.69967
-4.47328
-4.21589
-3.8844
-3.458
-2.95324
-2.41888
-1.90449
-5.3476
-5.0431
-4.88071
-4.66022
-4.42546
-4.15939
-3.81448
-3.36469
-2.82508
-2.24905
-1.69096
-5.27788
-4.97874
-4.81561
-4.59296
-4.34493
-4.06625
-3.71133
-3.24455
-2.67916
-2.071
-1.47006
-5.18404
-4.89048
-4.72646
-4.50253
-4.24467
-3.94836
-3.58606
-3.11095
-2.53139
-1.90594
-1.28888
-5.07494
-4.79076
-4.626
-4.40112
-4.14149
-3.83688
-3.46786
-2.9919
-2.41177
-1.78261
-1.14595
-4.96108
-4.68873
-4.527
-4.30656
-4.05179
-3.75477
-3.388
-2.92707
-2.35926
-1.73896
-1.11272
-4.84878
-4.59187
-4.44004
-4.2344
-3.99664
-3.7203
-3.38169
-2.95251
-2.41678
-1.82225
-1.20959
-4.74203
-4.50978
-4.37697
-4.19669
-3.99062
-3.75389
-3.4667
-3.09253
-2.61489
-2.06317
-1.4558
-4.64496
-4.45263
-4.34416
-4.19952
-4.03995
-3.86309
-3.64828
-3.35863
-2.96901
-2.48338
-1.89517
-4.5706
-4.42265
-4.3461
-4.2438
-4.14427
-4.04697
-3.92884
-3.74999
-3.47199
-3.07641
-2.52283
-4.50174
-4.42494
-4.36901
-4.31752
-4.29436
-4.29268
-4.28458
-4.21841
-4.03702
-3.71826
-3.24508
-4.59652
-4.4015
-4.42782
-4.47659
-4.53797
-4.60444
-4.63819
-4.60971
-4.50579
-4.29623
-3.91297
11.5578
7.42249
4.81781
3.37221
2.53847
2.01944
1.6508
1.3523
1.08756
0.862607
0.723656
11.8908
10.8202
8.72177
6.72159
5.06789
3.8226
2.92277
2.26123
1.74753
1.34313
1.10292
8.62908
9.17324
8.76275
7.68798
6.34675
5.05446
3.94555
3.04681
2.3326
1.7732
1.3992
5.88295
6.95536
7.17002
6.94767
6.3043
5.38343
4.39353
3.48576
2.70902
2.07613
1.63604
3.80382
4.92167
5.37068
5.60294
5.4655
4.99813
4.33103
3.59244
2.86837
2.2273
1.76091
2.2587
3.23867
3.68718
4.11697
4.31859
4.23309
3.89194
3.38098
2.79523
2.21543
1.78501
1.12078
1.93824
2.30249
2.75934
3.09186
3.23359
3.15877
2.89395
2.50109
2.02508
1.66181
0.319405
0.971671
1.23752
1.65183
1.99689
2.23179
2.31575
2.23714
2.01548
1.69085
1.40111
-0.307601
0.233309
0.414469
0.776621
1.08704
1.33919
1.49676
1.53502
1.44826
1.2612
1.08178
-0.846131
-0.363847
-0.256865
0.0718022
0.33471
0.570307
0.750233
0.850211
0.854573
0.773226
0.68443
-1.28316
-0.921422
-0.813774
-0.510297
-0.302614
-0.0965898
0.0777916
0.202241
0.261736
0.253141
0.24221
-1.62247
-1.37023
-1.24301
-1.02655
-0.857996
-0.688226
-0.53759
-0.412925
-0.322765
-0.280008
-0.239664
-1.93336
-1.74301
-1.63252
-1.47673
-1.34819
-1.22413
-1.11202
-1.00786
-0.910663
-0.829143
-0.731691
-2.23303
-2.08544
-1.99695
-1.88613
-1.79915
-1.72297
-1.65634
-1.58826
-1.50659
-1.41167
-1.28992
-2.47959
-2.39274
-2.33629
-2.26933
-2.22613
-2.19869
-2.18106
-2.15771
-2.10683
-2.01408
-1.87796
-2.72181
-2.68781
-2.66266
-2.63741
-2.63829
-2.65971
-2.69317
-2.71944
-2.70819
-2.62694
-2.48631
-2.96785
-2.98047
-2.98251
-2.99512
-3.03823
-3.10672
-3.19094
-3.26897
-3.30325
-3.24421
-3.10239
-3.20443
-3.26185
-3.29036
-3.33778
-3.41963
-3.53098
-3.66236
-3.79004
-3.87008
-3.83584
-3.65088
-3.4334
-3.52868
-3.58091
-3.65746
-3.77118
-3.91757
-4.08814
-4.25851
-4.38137
-4.38905
-4.23439
-3.65543
-3.77787
-3.84816
-3.9442
-4.07839
-4.24735
-4.44362
-4.64193
-4.79019
-4.80627
-4.56921
-3.86587
-4.00205
-4.08189
-4.18421
-4.32374
-4.4995
-4.70397
-4.91027
-5.06613
-5.09739
-4.89739
-4.05408
-4.18846
-4.26539
-4.35884
-4.48861
-4.65671
-4.85102
-5.04139
-5.17907
-5.20373
-5.04302
-4.22612
-4.33349
-4.3927
-4.46553
-4.57691
-4.72295
-4.88486
-5.02659
-5.10382
-5.05657
-4.75583
-4.3143
-4.38577
-4.41605
-4.46954
-4.55913
-4.67064
-4.77602
-4.83728
-4.82706
-4.71201
-4.40249
1.91392
0.569762
0.35263
0.464571
0.736937
1.07378
1.32069
1.47979
1.55614
1.58665
1.66191
10.067
7.81593
5.97359
4.72736
3.93197
3.44815
3.13993
2.91295
2.71458
2.54023
2.44096
10.5144
9.92236
8.78812
7.6
6.50728
5.59536
4.8713
4.29964
3.83136
3.43627
3.16267
9.67028
9.6716
9.28011
8.6392
7.8403
6.99771
6.17811
5.43206
4.77905
4.22912
3.8412
9.00648
9.16082
9.05396
8.78733
8.31326
7.68263
6.96772
6.24145
5.55597
4.95437
4.50401
8.51767
8.74451
8.73413
8.63428
8.38077
7.97795
7.44529
6.82668
6.1731
5.54347
5.02541
8.06442
8.29004
8.33004
8.34285
8.25107
8.01608
7.63173
7.12254
6.53205
5.92233
5.38361
7.6553
7.8258
7.88595
7.93295
7.91514
7.79033
7.53309
7.14411
6.64868
6.10666
5.62365
7.27447
7.41604
7.46751
7.51614
7.52317
7.45355
7.27847
6.98518
6.58099
6.11005
5.67344
6.90049
7.03352
7.078
7.12156
7.13361
7.08717
6.95727
6.72784
6.39598
5.98996
5.59693
6.57789
6.6891
6.71868
6.75063
6.75704
6.7166
6.60873
6.4183
6.13823
5.7884
5.45432
6.32718
6.39308
6.39422
6.4042
6.39475
6.34806
6.24685
6.07793
5.83348
5.52731
5.22729
6.06134
6.0976
6.07873
6.06759
6.03865
5.97874
5.87422
5.71488
5.49375
5.22162
4.97066
5.7582
5.78339
5.75351
5.72463
5.67613
5.59984
5.48621
5.32882
5.1229
4.87553
4.65785
5.50515
5.48824
5.4282
5.37207
5.29874
5.20189
5.07483
4.91513
4.72166
4.49903
4.30584
5.21953
5.16393
5.07739
4.99329
4.8923
4.77169
4.6287
4.46552
4.28521
4.08996
3.9298
4.86218
4.78327
4.67954
4.5691
4.4389
4.2928
4.13414
3.97076
3.80985
3.65023
3.52809
4.50329
4.37626
4.23746
4.08852
3.92179
3.74739
3.57667
3.42293
3.29513
3.18689
3.1217
4.09992
3.90936
3.72452
3.52476
3.31286
3.11064
2.93955
2.81604
2.74403
2.7051
2.70778
3.6027
3.33538
3.09737
2.83705
2.57624
2.35758
2.21287
2.15372
2.16769
2.21715
2.28448
2.97783
2.61182
2.29826
1.96845
1.67052
1.47143
1.40494
1.46061
1.59624
1.75534
1.90237
2.22142
1.63122
1.23951
0.852599
0.566996
0.467531
0.561135
0.789999
1.07643
1.35361
1.5839
0.673469
0.284456
-0.196026
-0.559247
-0.695936
-0.559701
-0.21732
0.220433
0.659469
1.03978
1.32934
1.48891
-1.17762
-1.71069
-1.88344
-1.71536
-1.27541
-0.70486
-0.117323
0.41583
0.85217
1.16807
-20.6228
-9.63966
-5.36978
-3.42833
-1.90088
-0.870076
-0.265784
0.182075
0.463461
0.645751
0.83579
-21.6087
-15.2845
-11.8472
-8.91315
-6.04269
-3.88294
-2.42171
-1.44463
-0.82198
-0.395454
-0.037214
-15.3133
-15.2728
-14.4068
-12.4118
-9.79848
-7.24157
-5.09128
-3.48661
-2.36613
-1.58273
-0.984428
-13.8381
-14.1005
-14.0378
-13.3453
-11.891
-9.86021
-7.63969
-5.64561
-4.08724
-2.92763
-2.02887
-13.9758
-13.9477
-13.8633
-13.6141
-12.9245
-11.5983
-9.72597
-7.67639
-5.83082
-4.34029
-3.14811
-14.2601
-14.2815
-14.1594
-14.0384
-13.7085
-12.8918
-11.442
-9.53121
-7.54025
-5.76723
-4.24437
-14.6305
-14.7242
-14.6906
-14.5808
-14.4657
-14.0426
-12.9742
-11.2718
-9.22699
-7.23307
-5.42944
-15.0824
-15.2449
-15.2809
-15.3045
-15.323
-15.1305
-14.4185
-12.9469
-10.8939
-8.69167
-6.57855
-15.5854
-15.8271
-15.9474
-16.1441
-16.2744
-16.3006
-15.8507
-14.5815
-12.5305
-10.1388
-7.71981
-16.0391
-16.3799
-16.569
-16.901
-17.2557
-17.495
-17.2545
-16.1476
-14.0823
-11.4953
-8.80035
-16.3028
-16.8734
-17.122
-17.6042
-18.1807
-18.5931
-18.5404
-17.5629
-15.4493
-12.6365
-9.68026
-16.5462
-17.179
-17.4693
-18.0915
-18.8245
-19.4323
-19.5726
-18.678
-16.477
-13.418
-10.237
-16.595
-17.2008
-17.637
-18.3014
-19.1304
-19.9095
-20.1979
-19.3064
-16.9853
-13.6806
-10.2098
-16.3789
-16.9713
-17.4901
-18.1869
-19.0245
-19.8555
-20.1834
-19.2392
-16.8186
-13.3303
-9.72445
-15.9336
-16.4445
-16.9736
-17.6465
-18.4344
-19.1816
-19.3193
-18.3218
-15.9051
-12.2624
-8.75259
-15.169
-15.5442
-16.0186
-16.6106
-17.2795
-17.8217
-17.7338
-16.5618
-14.0824
-10.6805
-7.31473
-14.0181
-14.2302
-14.6014
-15.0703
-15.5657
-15.8593
-15.5566
-14.1956
-11.6858
-8.53616
-5.30343
-12.4702
-12.5236
-12.7871
-13.1521
-13.4948
-13.5462
-12.968
-11.4559
-9.00983
-6.19102
-3.34296
-10.5401
-10.5157
-10.7582
-11.1104
-11.3673
-11.2122
-10.3504
-8.65356
-6.31856
-3.84499
-1.46995
-8.38295
-8.49301
-8.88128
-9.29417
-9.46596
-9.08029
-7.89808
-5.95722
-3.71096
-1.63516
0.170798
-6.58443
-7.03709
-7.71622
-8.24599
-8.36634
-7.76352
-6.25543
-4.09997
-1.98615
-0.186258
1.30723
-5.91686
-7.01182
-8.03437
-8.55983
-8.5683
-7.49747
-5.23261
-2.89701
-0.974625
0.475747
1.51761
-7.62126
-10.07
-9.82067
-8.9059
-7.32591
-5.42161
-3.37472
-1.61875
-0.303567
0.625946
1.2724
-13.7007
-8.17663
-6.18258
-4.90179
-3.60429
-2.3864
-1.31046
-0.421668
0.275959
0.792951
1.13529
0.988904
0.390669
-0.484369
-1.16103
-1.30506
-0.974291
-0.680182
-0.535165
-0.508591
0.840266
0.371883
-0.287896
-0.773166
-0.928707
-0.741124
-0.601299
-0.534111
-0.519605
0.706347
0.324651
-0.24431
-0.719639
-0.834881
-0.678467
-0.550857
-0.506606
-0.504883
0.575347
0.275811
-0.174185
-0.544294
-0.681076
-0.584215
-0.487517
-0.458006
-0.47187
0.993897
0.621439
-0.0781351
-1.06946
-1.77479
-1.85747
-1.3579
-0.769781
-0.55768
0.831706
0.510581
-0.0445752
-0.775725
-1.2969
-1.39666
-1.06229
-0.69342
-0.560098
0.686693
0.403862
-0.060715
-0.714611
-1.21988
-1.27697
-0.993508
-0.652458
-0.545905
0.572655
0.34438
-0.0733961
-0.593164
-0.99704
-1.09463
-0.891814
-0.598505
-0.52469
1.26732
1.73819
1.74838
-0.339283
-0.358716
2.14618
-0.455989
2.0269
2.16096
1.25072
-0.370664
2.0233
-0.367674
-0.0526032
1.26054
1.6603
-0.156379
-0.342909
1.66376
1.25447
1.38152
-0.406051
1.86452
-0.282041
1.69851
-0.0581286
-0.360559
-0.453952
-0.902459
-0.30105
-0.160465
0.184416
0.0272141
1.80329
0.0347153
1.7656
-0.285411
1.71212
0.0339248
2.15554
-0.229969
1.80938
0.0811846
1.86993
-0.567883
-0.219722
-0.22384
-0.366553
0.423637
2.32503
-0.305472
2.14516
-0.028427
0.0689925
2.31064
1.38359
-0.414537
2.1291
-0.958491
-0.105806
-0.551431
-0.0233135
-0.390573
-0.371224
-0.18155
1.25621
-0.261173
2.65869
1.76592
1.25206
-0.199417
1.64208
-0.41288
1.83262
-0.295126
1.67628
-0.403484
1.82764
-0.461042
-0.451863
-0.411341
-0.376056
1.34428
1.36596
-0.208699
-0.407859
-1.35839
-0.0111462
-0.451126
-0.314995
1.82577
2.11771
-0.193871
2.10733
-0.462873
-0.464729
-0.265814
-0.217997
-0.426207
1.6856
-0.249798
-0.410149
1.13063
-0.0510899
-0.43045
1.91913
-0.0229999
1.34841
-0.104628
0.866759
1.90474
1.80369
1.8903
-0.368561
-0.280969
1.31662
2.16447
1.82331
2.05749
1.0187
-0.380187
1.76856
0.330099
-0.165471
-0.219371
-0.279229
-0.104357
-0.0222309
-0.013503
-0.0761688
2.01389
-0.10648
-0.37917
1.65579
1.8471
-0.237554
-0.375483
-0.380967
-0.257849
0.531447
0.108591
1.2669
-0.52611
0.70954
2.16182
-0.436437
-0.29963
2.63234
1.38933
1.98782
2.15775
2.06294
-0.43801
1.78637
-0.35318
0.0645482
-0.383716
-0.451284
-0.140178
1.41893
-0.185914
-0.456616
1.6596
1.46492
-0.235123
-0.25214
-0.44639
1.36165
-0.259309
-0.20529
0.00495054
-0.0528637
-0.24918
1.13211
0.23083
0.302365
-0.000485688
-0.44709
-0.599538
0.36839
2.55531
-0.403332
1.81421
-0.349018
2.02161
-0.34703
2.23168
1.80013
1.57765
-0.46039
-0.12189
-0.14434
1.19791
-0.25191
1.77851
1.55362
2.1867
-0.444687
-0.0803757
1.32961
-0.405686
2.37088
-0.19866
-0.190968
1.8335
-0.00853265
2.13168
-0.0124551
2.28125
1.24459
-0.330052
1.73646
0.95964
0.153342
1.84584
-0.19994
1.8423
-0.273568
2.30435
-0.309017
0.0274647
-0.377626
-0.267327
-0.292246
-0.140592
2.0974
-0.316029
-0.223144
-0.0988124
-0.392863
-0.430998
1.17453
2.19009
1.70203
-0.435572
-0.947695
-0.369236
1.80914
1.98227
1.98699
-0.242363
-0.279992
-0.0704036
-0.299555
2.63831
-0.485821
1.79261
-0.220892
-0.599419
-0.396036
-0.216104
-0.341794
-0.621551
1.40835
0.278379
2.17892
1.48969
1.7148
-0.428698
2.24537
-0.00147303
-0.285322
1.22233
1.85501
1.89714
-0.284516
1.22551
3.26459
-0.0767537
0.0027133
-0.374119
2.1592
2.38118
-0.224571
1.83095
1.81325
-0.190012
1.90467
0.604569
-0.443977
1.65118
2.00641
-0.413301
-0.368032
0.342626
1.7272
-1.32353
1.99593
0.46167
0.119456
1.95046
-0.474936
1.05354
-0.00580569
1.76542
2.26353
-0.255891
1.8895
0.0901224
-0.20808
2.09097
-0.409694
0.248219
-0.295285
1.52764
0.813381
1.84569
-0.0450695
-0.406497
2.03948
-0.408785
1.92597
0.735547
0.0284363
-0.449687
0.724184
-0.32896
-0.428589
0.966395
2.01729
2.14699
-0.22704
1.75789
-0.219095
-0.408657
1.42369
1.80927
-0.307915
1.15937
-0.364211
3.1132
-0.385077
-0.380458
1.94478
-0.360818
-0.694752
-0.405757
1.85415
1.89225
-0.192324
-0.321459
-0.3185
2.39634
-0.25058
-0.391287
-0.0675233
-0.158024
1.80172
-0.275571
-0.169296
-0.396689
-0.204527
0.0425992
1.5831
-0.0934342
1.32826
0.0231533
0.586197
1.85565
-0.391175
0.0178535
-0.0772929
1.83759
1.3408
1.85893
-0.444723
-0.051826
0.0573383
-0.405531
0.505174
1.88804
-0.393866
-0.654418
-0.0172302
-0.0711739
1.94661
0.287237
0.040178
1.72252
1.97678
-0.376967
1.5829
-0.437582
2.0799
-0.140711
-0.24418
-0.397054
-0.139073
-0.279711
-0.445311
2.05139
-0.421749
-0.056047
1.48804
-0.247112
-0.193352
1.85328
1.98131
1.99948
-0.11926
-0.434136
1.31017
1.94618
0.148002
0.012271
-0.272092
-0.470638
-0.140783
2.36814
-0.208481
1.676
1.65103
-0.192722
-0.18332
-0.437847
0.650772
-0.133099
1.7763
-0.00541331
-0.441391
-0.323399
-0.00976587
-0.442551
-0.0405331
0.265594
0.932975
1.82254
-0.0292935
-0.211684
-0.157348
1.78362
-0.475888
-0.185288
0.903375
-0.0458965
0.0518587
-0.259466
-0.279835
-0.169069
1.76141
-0.138863
-1.30819
-0.291836
-0.402456
1.93854
0.0735516
-0.109883
-0.398246
1.48909
-0.483355
2.05086
1.36666
1.85965
-0.44878
-0.302559
-0.397288
0.00731649
-0.453733
-0.00206035
1.49293
1.5077
-0.139051
-0.0275588
0.236307
1.91077
-0.0162428
-0.000952208
1.31821
1.73343
3.03846
0.288563
-0.427352
1.9284
-0.482435
1.86981
1.95603
2.13369
1.25955
-0.453166
2.20018
1.40307
1.43492
-0.364064
-0.392688
1.85327
-0.422447
-0.385274
0.758484
0.0869701
1.33879
-0.374093
1.57922
1.97139
2.09424
-0.0136668
-0.13997
1.20411
-0.18366
0.861313
3.22058
-0.30241
-0.303489
2.00451
1.396
-0.623336
0.0713205
-0.407506
3.08254
-0.396124
1.75876
-0.259805
-0.124273
-0.448856
-0.243655
-0.284208
-0.298212
-0.0901806
-0.177565
1.78194
-0.153954
0.928012
2.00189
1.8475
1.95397
1.56595
-0.394995
2.04232
1.35577
-0.260136
2.08933
-0.266279
0.190802
-0.0393749
-0.196518
-0.452932
1.66576
1.80851
1.99539
-0.278856
-0.441505
1.79195
1.49838
-0.161789
1.96074
-0.292205
1.96378
-0.245629
0.595004
-0.47528
0.0400362
-0.010001
-0.235055
-0.25405
1.55084
1.17506
1.35407
1.93289
0.0347789
-0.475465
1.1249
-0.180603
-0.740516
-0.362679
1.74343
2.23799
1.91216
-0.113863
-0.359743
-0.0331859
1.96988
2.10574
-0.383508
2.03317
-0.0415863
-0.0419487
-0.124222
-0.40661
1.92212
-0.00878577
1.79993
-0.0835794
2.02974
-0.290675
-0.00123097
0.281226
-0.449266
-0.275022
2.00103
1.82134
-0.475501
1.44214
-0.186189
-0.330797
-0.110717
-0.13202
-0.310909
-0.324444
1.3285
2.10289
2.03085
-0.486328
-0.272701
-0.0776576
1.23147
1.75162
-0.465628
2.22585
2.14432
1.67287
1.51601
-0.146578
-0.125765
-0.0867735
-0.0517941
0.494613
-0.738457
1.38621
-0.276077
1.62148
2.0818
-0.588842
-0.339774
1.72489
1.5184
-0.359041
1.10249
1.46877
-0.0729894
1.90605
1.30846
-0.309064
-0.00973028
0.128957
0.000349351
-0.00886457
-0.457434
-0.161578
-0.314606
-0.250446
-0.257465
-0.446025
-0.407036
-0.156895
1.76273
1.7258
-0.412796
0.502126
1.9132
0.865013
-0.196579
0.0987961
-0.58456
-0.260901
0.172352
1.83248
-0.66624
1.68754
1.96409
0.882572
-0.367131
1.45753
3.1698
2.014
1.92929
-0.311763
-0.0545711
-0.397742
1.60038
2.35375
0.603505
0.0964688
2.01944
-0.503638
1.80567
-0.281587
-0.0585534
1.8876
0.0234961
1.50171
0.0163173
-0.321164
-0.135426
-0.54278
-0.171202
-0.179124
1.34703
-0.0209543
-0.0299664
-0.449001
-0.170592
1.78522
0.707261
1.36072
-0.00309443
1.92862
-0.386836
1.96011
2.1486
1.71256
-0.355363
-0.0245051
1.69626
-0.00310697
1.96591
-0.203315
-0.145547
1.10183
-0.330936
-0.29673
0.0289057
0.343063
-0.26575
-0.338567
-0.257242
0.024493
-0.444617
1.77609
-0.172651
1.97989
3.01263
-0.409109
-0.156771
-0.379308
-0.0446086
2.02512
1.28361
0.992337
-0.26095
1.5049
-0.035241
0.123601
-0.246313
1.05355
0.215465
0.0106301
-0.14474
1.61582
-0.319745
-0.399693
-0.427366
1.91604
-0.0868413
-0.753874
1.79935
-0.295758
-0.0124692
1.95087
-0.28205
2.09715
2.16059
0.851203
-0.0161611
1.63101
-0.0199425
1.90055
0.011207
1.49531
-0.0169515
0.074757
-0.329508
-0.0683007
1.77706
-0.258846
-0.269752
1.40568
-0.0101937
0.330638
0.170916
-0.598707
-0.445672
1.28395
-0.303797
0.0292058
-0.469561
1.92836
-0.219802
1.83172
-0.178287
-0.355553
1.75237
2.06303
-0.215905
-0.387364
-0.285006
-0.319824
2.01568
-0.169243
0.855377
1.79109
1.58491
1.92594
1.98146
2.70935
-0.00423277
-0.427267
-0.367779
-0.0627243
-0.121382
1.6821
2.01786
0.119518
-0.311877
1.82324
0.0236584
-0.15273
-0.40013
-0.354138
-0.305102
0.194163
-0.311082
1.66669
2.00569
-0.240548
1.1093
2.02023
0.802113
-0.0313629
-0.162432
-0.134447
1.78722
-0.253093
-0.298478
-0.409667
2.0178
-0.0372162
0.0880543
-0.0389579
-0.343891
1.42302
1.92027
-0.333673
-0.141856
0.138699
1.36231
2.00298
1.99766
2.04224
2.00413
-0.228547
-0.214806
-0.281458
-0.425072
0.13763
2.00472
-0.377679
1.50323
1.7843
0.302659
2.01917
1.94929
2.12226
-0.42874
-0.0877949
0.0466474
1.93806
-0.308661
1.76847
1.88262
2.21817
1.53968
0.87397
1.8765
1.85127
2.24058
-0.666149
1.84338
1.31014
-0.112449
-0.515885
2.45739
1.85601
-0.373312
-0.668924
2.48953
-0.229865
-0.10669
-0.344335
1.9277
1.7043
1.39113
0.658044
0.0410561
1.99176
-0.261833
-0.0185056
-0.169391
0.0419567
1.88549
-0.0663061
1.1992
1.88958
1.66668
3.13716
1.83268
-0.221256
-0.244485
0.311703
-0.256794
-0.151109
0.118574
0.464566
-0.457592
1.82251
1.89237
-0.00335432
0.0193418
-0.0858425
2.15447
-0.411385
1.90955
-0.329823
1.52999
-0.00208019
-0.076731
-0.450338
-0.211259
1.2218
1.7119
-0.390563
-0.374233
-0.0588258
-0.02188
-0.14147
1.01426
1.50099
-0.202942
1.9535
1.84733
-0.184576
-0.17183
-0.341704
-0.37624
-0.0445257
-0.0657595
-0.18403
-0.798567
1.38606
1.01514
-0.12695
1.42666
-0.838383
1.95299
-0.320272
-0.0109224
-0.144277
1.46812
-0.181573
1.97044
2.1305
-0.142882
-0.344171
2.13156
1.90454
2.21998
-0.269035
-0.181731
-0.445251
0.527919
1.21932
-0.202873
-0.276799
-0.483241
1.3869
-0.137948
0.0258639
1.98596
-0.0356106
0.517615
-0.00482748
-0.231861
0.461843
-0.374904
0.680574
1.88055
-0.362445
-0.218188
2.31272
-0.147122
1.82001
-0.904994
-0.0214039
-0.347263
1.727
-0.0119994
-0.327311
-0.279429
-0.0124047
-0.0815129
1.3392
-0.0169156
-0.373018
1.83995
0.908963
-0.269973
-0.404738
-0.289144
-0.237677
2.09583
1.50774
-0.41134
1.99377
-0.235295
0.0465049
-0.0240133
-0.348191
2.0021
-0.349036
-0.430923
-0.0188191
-0.305043
0.089723
1.65836
-0.23237
5.72026e-05
1.47026
0.808094
1.85105
-0.290592
1.09109
1.98779
-0.296301
0.113352
-0.0136072
1.90674
-0.40659
-0.349608
1.23182
-0.260496
1.78274
1.23502
0.466041
-0.435519
3.00907
-0.092706
0.488298
-0.428276
1.87271
1.46866
1.35526
1.36008
-0.418455
-0.333939
0.126729
-0.546407
-0.188292
-0.781461
1.21943
0.753336
-0.409022
1.42874
-0.0340513
-0.0827649
0.216751
-0.378854
-0.311853
-0.318736
1.98374
-0.128616
1.3919
-0.4007
1.90521
-0.599781
-0.253866
1.76243
-0.435662
-0.291669
1.53093
-0.251104
0.0965212
-0.294537
-0.332233
0.233427
-0.522897
-0.064512
-0.375238
-0.243365
-0.245293
1.91935
-0.262632
2.85786
-0.229274
-0.0992188
-0.352395
0.153741
-0.138201
-0.525793
1.4142
2.54651
1.44404
1.91099
0.015
-0.220498
1.43785
-0.09452
-0.251706
3.2796
-0.390588
-0.450014
-0.244708
-0.260399
-0.363098
-0.221622
-0.0525861
-0.132884
1.44957
1.54353
-0.338274
1.52669
1.83492
-0.237949
1.34008
2.56627
-0.341007
1.64704
-0.615931
-0.0977162
-0.390027
1.4116
-0.248834
0.00770274
-0.0688406
-0.288187
1.37592
0.0499281
-0.194597
0.000459067
0.0211387
1.64779
-0.105284
1.12317
-0.313822
-0.159659
0.642912
1.45667
-0.450146
0.243657
-0.27847
-0.46601
-0.229829
1.51688
1.84115
1.57083
0.0668847
0.0253978
-0.0163548
-0.424018
-1.17988
1.33715
0.202281
1.18339
1.94474
-0.477241
1.29374
2.44495
-0.774044
-0.308816
-0.41367
-0.39812
1.908
1.74034
-0.0169747
-0.350056
-0.319698
-0.533906
-0.210838
1.93681
2.28353
-0.0791764
-0.203425
-0.0559766
-0.0552064
1.89303
-0.118251
-0.0210432
-0.394514
1.6789
-0.247997
-0.455865
0.529892
-0.183062
1.96322
1.09749
-0.360371
-0.0170707
-0.237902
1.34976
0.394104
0.15132
-0.278852
-0.33169
-0.106852
-0.342751
-0.0963897
2.17892
-0.447749
-0.339417
1.54202
-0.0152217
0.0866047
0.824707
-0.385881
1.46924
1.83117
1.47024
-0.351447
-0.00729439
1.77666
-0.101494
1.47806
1.84868
1.32633
-0.191759
1.78444
-0.256934
-0.33077
1.53692
-0.406557
-0.447584
-0.196482
-0.478069
-0.122103
-0.244572
-0.0035583
2.04035
1.86509
1.94578
0.0195541
1.33222
2.08409
-0.262424
-0.43761
-0.0354321
0.0089041
0.0478558
0.316044
-0.340653
-0.330243
1.75759
0.188213
1.69866
-0.00782656
0.989316
-0.0391082
1.39801
1.1428
2.03751
-0.436505
-0.0743696
0.835166
-0.285546
1.74138
0.0115105
-0.173557
-0.413919
-0.0750859
1.45391
1.24675
-0.136816
-0.290388
-0.128373
-0.0411172
-0.45512
0.0173768
1.49497
-0.518775
-0.0637455
1.05027
-0.410089
-0.378387
-0.268193
-0.426901
-0.335819
-0.0115106
-0.43449
-0.53742
1.7695
2.59395
-0.116293
-0.342247
0.280428
1.83396
-0.216326
1.7842
1.69978
-0.45452
1.34292
1.99788
-0.484899
-0.402737
2.34973
1.29995
2.14877
1.54475
1.90304
2.01173
-0.3127
-0.0641443
1.72271
1.9623
-0.447692
1.94511
-0.0713986
1.8864
1.60895
2.00155
-0.250375
-0.476341
-0.308489
1.29549
1.8798
-0.00841993
-0.102836
1.46673
-0.200247
-0.219763
2.1261
-0.252361
-0.0826626
-0.497964
-0.227618
-0.301435
1.99479
-0.326914
2.0154
1.42016
2.06216
-0.386296
1.56449
-0.290342
2.07511
-0.384972
1.86953
1.54946
-0.358878
1.86973
1.67452
-0.327534
-0.406252
-0.410099
1.63865
1.38462
2.00565
-0.240428
-0.103211
-0.297961
-0.100096
-0.321862
-0.293999
1.96978
1.72692
2.92243
1.21371
-0.291916
2.03178
0.163204
1.84867
-0.357457
0.101214
-0.100584
0.0493847
0.628865
0.36189
1.79386
-0.190867
-0.535867
1.4324
1.53845
0.0889352
1.31547
1.9231
1.23386
-0.270047
1.7458
-0.4314
-0.510631
-0.0694209
-0.136062
1.74617
-0.282494
0.471968
-0.466253
-0.14373
0.580125
-0.28532
1.31055
1.87094
1.23372
1.68471
-0.085455
1.31982
1.97157
-0.115356
-0.343155
2.04576
1.25953
-0.455944
-0.0837429
1.37927
-0.2097
1.33089
1.36587
-0.252431
1.55847
0.126796
-0.00246203
1.41572
1.84384
-0.15117
-0.434905
1.22116
-0.0725216
1.77995
1.7221
-0.122563
1.43833
-0.0934384
1.50873
2.16023
-0.264994
0.825249
2.65354
-1.45586
1.51723
2.4672
2.85594
2.65516
0.0956301
0.364909
-0.215204
-0.237199
-0.429685
2.43999
2.14709
-0.405153
-0.0113218
1.49483
1.04606
-0.245931
1.8401
-0.137095
1.995
-0.254877
2.15798
1.23455
-0.0125603
-0.224418
-0.155325
1.76588
1.36758
1.03145
1.268
1.98637
-0.135971
-0.12593
-0.324241
-0.356012
0.0943683
1.21156
2.0398
2.12132
-0.449852
1.0182
0.00954066
-0.540187
1.45378
-0.389058
-0.278284
2.07528
1.34687
0.437679
-0.249656
-0.206829
1.86388
-0.182307
-0.115328
-0.409271
-0.0446035
-0.100081
1.92679
-0.292205
-0.0715438
-0.510189
-0.259055
-0.354717
-0.0452501
1.58443
1.16738
-0.381103
1.7763
-0.083135
-0.180956
0.0284108
-0.210339
-0.286203
-0.343052
-0.296467
-0.357337
2.03056
-0.280658
0.0281286
0.207044
-0.0683531
-0.402104
1.50235
-0.493334
2.02034
-0.0735004
-0.567798
-0.231706
-0.244823
-0.295895
-0.298458
2.14489
1.98895
2.02906
1.54401
1.65477
0.154101
2.63558
-0.391024
2.28098
-0.404567
-0.360959
1.71687
1.37881
-0.273179
-0.390596
1.87916
0.815718
1.86845
1.81349
0.392812
-0.336775
1.60505
1.66116
1.59673
1.7785
1.9785
1.84071
-0.172291
-0.408261
2.01845
-0.162052
1.8239
1.72769
0.30047
1.87879
-0.237171
1.22827
1.98622
1.77946
1.28493
-0.0527263
2.42169
-0.04072
-0.425446
-0.386478
0.119936
-0.236301
0.0450327
-0.0870489
0.0558968
-0.233863
-0.0885855
1.86574
0.0338774
1.09766
2.0418
1.82514
-0.584593
-0.148424
-0.0479781
1.3638
-0.40452
2.05413
0.122871
-0.168882
1.78688
0.448299
2.05992
0.0359869
1.53347
-0.469403
1.51123
1.33459
-0.226236
0.0714802
-0.0203517
-0.406316
-0.38092
-0.361565
0.0784725
-0.243948
1.45623
-0.470379
0.134397
-0.362429
-0.276471
1.05693
-0.426121
1.48287
1.34989
1.9963
1.20096
1.8434
1.98525
-0.0900593
-0.460481