/*--------------------------------*- C++ -*----------------------------------*\
| =========                 |                                                 |
| \\      /  F ield         | OpenFOAM: The Open Source CFD Toolbox           |
|  \\    /   O peration     | Version:  3.0.1                                 |
|   \\  /    A nd           | Web:      www.OpenFOAM.org                      |
|    \\/     M anipulation  |                                                 |
\*---------------------------------------------------------------------------*/
FoamFile
{
    version     2.0;
    format      ascii;
    class       volScalarField;
    location    "0.474279";
    object      p;
}
// * * * * * * * * * * * * * * * * * * * * * * * * * * * * * * * * * * * * * //

dimensions      [0 2 -2 0 0 0 0];

internalField   nonuniform List<scalar> 
21246
(
10.6458
11.5058
10.5184
9.01489
7.35781
5.93092
4.72592
3.73279
2.90348
2.24493
1.8997
-16.5792
-4.32788
-0.660082
2.34095
3.26404
3.35975
2.94004
2.44265
1.93069
1.47399
1.21488
-27.3729
-16.5203
-12.6761
-6.56632
-3.16592
-0.924053
0.121172
0.492088
0.557658
0.491192
0.463853
-27.4228
-21.6395
-19.5837
-13.2442
-9.37475
-5.76525
-3.43624
-1.98514
-1.20561
-0.760771
-0.463296
-24.1445
-21.5808
-20.9841
-16.2269
-13.3181
-9.47742
-6.68538
-4.51502
-3.09238
-2.14955
-1.46755
-20.8372
-19.5549
-19.495
-16.4006
-14.6893
-11.3753
-8.85417
-6.51239
-4.74289
-3.45419
-2.47737
-17.8683
-17.1903
-17.2326
-15.2281
-14.3022
-11.746
-9.81215
-7.66103
-5.8969
-4.45737
-3.29928
-15.1017
-14.8344
-14.9149
-13.5728
-13.0588
-11.1902
-9.8206
-8.01297
-6.46243
-5.07391
-3.89772
-12.7204
-12.6665
-12.7292
-11.8272
-11.5249
-10.1771
-9.22576
-7.78982
-6.521
-5.28342
-4.1843
-10.8333
-10.7717
-10.7941
-10.174
-9.97111
-8.99979
-8.32863
-7.22007
-6.22045
-5.17331
-4.19449
-9.10403
-9.04263
-9.06573
-8.63836
-8.50105
-7.80415
-7.32436
-6.48072
-5.70583
-4.85204
-4.04461
-7.51664
-7.46382
-7.47445
-7.21536
-7.14344
-6.65506
-6.3155
-5.68104
-5.08318
-4.39267
-3.72721
-6.28941
-6.18087
-6.17263
-6.00157
-5.95766
-5.61334
-5.36805
-4.89041
-4.42596
-3.8697
-3.32336
-5.39849
-5.21865
-5.18497
-5.04679
-4.99146
-4.72754
-4.52853
-4.15558
-3.78365
-3.33528
-2.90499
-4.6703
-4.43913
-4.39701
-4.27964
-4.20854
-3.98868
-3.80413
-3.49267
-3.17742
-2.80396
-2.44319
-4.139
-3.86571
-3.80494
-3.68549
-3.5875
-3.38015
-3.18408
-2.89824
-2.61109
-2.29092
-1.99522
-3.77682
-3.47637
-3.38824
-3.24789
-3.10902
-2.88344
-2.65037
-2.35918
-2.07849
-1.79562
-1.54298
-3.49315
-3.17424
-3.05578
-2.89507
-2.71215
-2.45182
-2.16695
-1.85038
-1.56523
-1.31465
-1.11252
-3.24683
-2.91787
-2.7716
-2.58306
-2.35531
-2.04466
-1.69709
-1.34632
-1.05906
-0.846328
-0.710009
-3.00617
-2.67675
-2.51006
-2.29325
-2.00563
-1.62162
-1.20586
-0.828442
-0.555876
-0.38994
-0.304663
-2.76523
-2.44017
-2.25699
-1.99231
-1.61381
-1.13787
-0.665451
-0.296612
-0.0697518
0.0399166
0.0892739
-2.47273
-2.20395
-1.96298
-1.595
-1.08552
-0.532113
-0.0748586
0.208526
0.347589
0.384299
0.3682
-2.31622
-1.93994
-1.5662
-1.00599
-0.381748
0.144591
0.472689
0.630023
0.699695
0.744775
0.999827
-1.38709
-1.01039
-0.350831
0.23864
0.591616
0.746295
0.75934
0.705953
0.628917
0.555037
0.756795
27.5763
21.6102
16.4483
12.5281
9.71187
7.63071
5.99946
4.68685
3.63027
2.81106
2.29
17.0387
18.3105
17.2332
14.8917
11.935
9.27365
7.12885
5.487
4.23192
3.2965
2.7003
6.37703
11.1422
12.3046
12.5343
11.3371
9.5467
7.69774
6.02874
4.64439
3.60092
2.90969
-1.18098
4.0062
5.98155
8.0927
8.70564
8.1914
7.10355
5.81707
4.59124
3.59852
2.95153
-5.43585
-1.23476
0.439587
3.25501
4.8328
5.59548
5.46747
4.87043
4.06203
3.29245
2.73675
-7.5982
-4.38636
-3.30489
-0.551535
1.18879
2.64272
3.27587
3.36643
3.07245
2.63403
2.25962
-8.6442
-6.08995
-5.51216
-3.03106
-1.63071
0.100059
1.10643
1.68896
1.85065
1.76724
1.63028
-9.03095
-6.94226
-6.78589
-4.45328
-3.53667
-1.83802
-0.718319
0.136332
0.619365
0.838965
0.937848
-9.27952
-7.40873
-7.52186
-5.44378
-4.65988
-3.18023
-2.09829
-1.13864
-0.470351
-0.042043
0.248528
-9.47741
-7.90369
-7.72617
-6.20156
-5.39133
-4.08411
-3.07919
-2.10364
-1.3487
-0.788088
-0.367701
-9.55978
-8.34925
-7.8878
-6.64128
-5.86816
-4.68148
-3.74672
-2.78961
-2.00527
-1.37143
-0.872361
-9.43183
-8.42939
-7.95894
-6.85231
-6.12904
-5.03854
-4.1662
-3.23967
-2.45683
-1.78999
-1.26116
-9.29167
-8.34544
-7.90318
-6.88432
-6.20939
-5.19161
-4.37654
-3.48549
-2.7234
-2.0496
-1.51838
-9.17538
-8.18953
-7.75623
-6.78387
-6.14132
-5.17946
-4.41009
-3.55663
-2.82489
-2.16398
-1.62907
-8.81665
-7.88797
-7.49908
-6.57112
-5.9492
-5.03532
-4.2969
-3.48174
-2.78245
-2.14814
-1.62611
-8.40878
-7.51197
-7.15044
-6.25947
-5.64576
-4.77473
-4.05568
-3.28042
-2.61642
-2.02285
-1.5324
-8.00063
-7.09566
-6.72936
-5.86303
-5.23913
-4.40428
-3.69711
-2.96482
-2.34339
-1.80484
-1.365
-7.4991
-6.59619
-6.21828
-5.37587
-4.72807
-3.92425
-3.22802
-2.54428
-1.98069
-1.50474
-1.12209
-6.90375
-6.00558
-5.60423
-4.78404
-4.10418
-3.33
-2.65504
-2.03604
-1.53582
-1.14149
-0.840063
-6.23361
-5.3255
-4.87636
-4.07041
-3.35654
-2.61718
-1.98579
-1.4487
-1.03647
-0.737065
-0.525735
-5.45985
-4.52251
-4.0018
-3.20793
-2.47733
-1.7946
-1.24477
-0.813458
-0.509256
-0.313226
-0.197285
-4.51537
-3.52905
-2.92309
-2.1664
-1.47433
-0.896438
-0.467641
-0.165271
0.0240619
0.120414
0.149129
-3.45911
-2.31655
-1.676
-1.05002
-0.488819
-0.0645709
0.220008
0.398789
0.483484
0.488239
0.454283
-1.43283
-0.527289
-0.103224
0.248176
0.552298
0.766588
0.899206
1.02204
1.07695
1.01928
0.812129
-7.36815
-2.77927
-1.01292
-0.217219
0.121179
0.253179
0.262385
0.212384
0.12398
0.0236799
-0.00291644
-16.7134
-9.53897
-6.611
-4.38788
-2.67746
-1.61964
-1.04639
-0.733057
-0.581623
-0.518654
-0.461114
-14.466
-11.6606
-9.98417
-7.75779
-5.5513
-3.85209
-2.67319
-1.90313
-1.43052
-1.1431
-0.920988
-10.3195
-10.1158
-9.8039
-8.62433
-7.02717
-5.44492
-4.08961
-3.04628
-2.31049
-1.81809
-1.45436
-7.95562
-8.19243
-8.23018
-7.84046
-7.05389
-6.00348
-4.87974
-3.8613
-3.04242
-2.43003
-1.95225
-6.74356
-6.85727
-6.89341
-6.77271
-6.43868
-5.84812
-5.07519
-4.25551
-3.50349
-2.88171
-2.36466
-6.22067
-6.11318
-6.0853
-6.0116
-5.8219
-5.46887
-4.95229
-4.33705
-3.70883
-3.14128
-2.64515
-6.0342
-5.7601
-5.69509
-5.57143
-5.39463
-5.12865
-4.74526
-4.26567
-3.74217
-3.23701
-2.77681
-5.92324
-5.6018
-5.49976
-5.32026
-5.12697
-4.88769
-4.56165
-4.15032
-3.68768
-3.22271
-2.79172
-5.84532
-5.51791
-5.3823
-5.17941
-4.97714
-4.7417
-4.43263
-4.04409
-3.60108
-3.14627
-2.72218
-5.8117
-5.49155
-5.33226
-5.11599
-4.90649
-4.66418
-4.35174
-3.95843
-3.50536
-3.03469
-2.59407
-5.78703
-5.46988
-5.30793
-5.08902
-4.86983
-4.61683
-4.29304
-3.88172
-3.40177
-2.89789
-2.41411
-5.75175
-5.43984
-5.2794
-5.05969
-4.83184
-4.5708
-4.23305
-3.79853
-3.28491
-2.74229
-2.2199
-5.69592
-5.39316
-5.2311
-5.01035
-4.7725
-4.50267
-4.15201
-3.69598
-3.1502
-2.56929
-2.0071
-5.61733
-5.31951
-5.15639
-4.93296
-4.68188
-4.39774
-4.03791
-3.5671
-2.99821
-2.38897
-1.78863
-5.51653
-5.22419
-5.05994
-4.8347
-4.57446
-4.27293
-3.90637
-3.42784
-2.8476
-2.22404
-1.61192
-5.40367
-5.12087
-4.95597
-4.72975
-4.46812
-4.16109
-3.7878
-3.30951
-2.72965
-2.10409
-1.47542
-5.28932
-5.01829
-4.85735
-4.63703
-4.38184
-4.08368
-3.71461
-3.252
-2.68446
-2.06793
-1.44891
-5.17918
-4.92445
-4.77516
-4.57121
-4.33508
-4.05945
-3.72059
-3.28958
-2.75316
-2.15995
-1.55085
-5.07787
-4.84896
-4.72003
-4.54329
-4.34119
-4.10742
-3.82066
-3.44423
-2.9632
-2.40769
-1.7982
-4.9883
-4.80104
-4.69782
-4.55883
-4.40546
-4.23327
-4.01896
-3.72523
-3.32779
-2.83044
-2.23158
-4.92277
-4.78258
-4.71315
-4.61885
-4.52737
-4.43542
-4.31667
-4.12909
-3.83829
-3.42494
-2.84416
-4.86405
-4.80012
-4.75427
-4.71184
-4.69648
-4.69825
-4.6844
-4.59895
-4.38671
-4.04546
-3.5534
-4.98421
-4.81064
-4.83977
-4.89154
-4.95176
-5.00767
-5.02284
-4.97624
-4.85417
-4.61823
-4.20742
11.0197
6.92408
4.35385
2.93842
2.12937
1.62929
1.27419
0.985259
0.727803
0.508692
0.374893
11.4635
10.3745
8.27929
6.29244
4.65603
3.42887
2.54383
1.89306
1.38759
0.989505
0.754941
8.24355
8.76834
8.34881
7.27277
5.94288
4.66557
3.56971
2.68058
1.97466
1.42188
1.05306
5.54176
6.58413
6.78668
6.55753
5.91582
5.0013
4.02139
3.12423
2.35592
1.72941
1.29434
3.49278
4.58303
5.01963
5.23799
5.09349
4.62805
3.9684
3.23758
2.51855
1.88324
1.42385
1.96602
2.92263
3.36207
3.77728
3.96903
3.87957
3.53975
3.03218
2.45029
1.87632
1.44943
0.844043
1.63913
1.9969
2.43938
2.76163
2.89697
2.82
2.55554
2.16166
1.69487
1.33071
0.0549766
0.685573
0.9473
1.3469
1.68148
1.90841
1.98759
1.90714
1.68715
1.36206
1.07287
-0.560094
-0.0428102
0.137197
0.482715
0.782237
1.02481
1.17529
1.20921
1.12362
0.933093
0.754015
-1.08643
-0.633111
-0.522579
-0.215934
0.0359179
0.260155
0.430895
0.524311
0.528126
0.443113
0.353437
-1.52059
-1.17555
-1.07556
-0.799013
-0.601652
-0.408922
-0.245256
-0.128859
-0.0716538
-0.0838295
-0.0964602
-1.86255
-1.63049
-1.51068
-1.30665
-1.16778
-1.01076
-0.871557
-0.755334
-0.669293
-0.629127
-0.590012
-2.18177
-2.01454
-1.91331
-1.77473
-1.66527
-1.55862
-1.46126
-1.368
-1.27591
-1.19612
-1.09686
-2.49316
-2.37129
-2.29467
-2.20241
-2.13388
-2.07593
-2.02524
-1.96975
-1.89462
-1.80062
-1.67563
-2.75876
-2.69675
-2.6538
-2.60583
-2.58171
-2.57317
-2.5725
-2.56259
-2.51898
-2.42589
-2.28372
-3.02067
-3.01114
-3.00025
-2.9943
-3.01502
-3.0559
-3.10693
-3.14695
-3.14287
-3.05964
-2.9107
-3.28427
-3.32205
-3.33851
-3.37062
-3.43398
-3.52201
-3.6237
-3.71505
-3.7556
-3.69243
-3.53841
-3.53849
-3.61972
-3.6624
-3.7289
-3.83055
-3.96063
-4.10832
-4.2477
-4.33181
-4.29028
-4.08634
-3.78396
-3.90072
-3.96641
-4.06069
-4.19262
-4.35574
-4.54
-4.71881
-4.84224
-4.8397
-4.66317
-4.02051
-4.16159
-4.2441
-4.35564
-4.50538
-4.68781
-4.89363
-5.09553
-5.23942
-5.24142
-4.97993
-4.2433
-4.39475
-4.48494
-4.59987
-4.75151
-4.93649
-5.14518
-5.34894
-5.49469
-5.50796
-5.28191
-4.44118
-4.58706
-4.67212
-4.77527
-4.9136
-5.08612
-5.27866
-5.45985
-5.58162
-5.58424
-5.39452
-4.62102
-4.73641
-4.80196
-4.88155
-4.99728
-5.14271
-5.29641
-5.42258
-5.47967
-5.40867
-5.08232
-4.71239
-4.78863
-4.82263
-4.87928
-4.96959
-5.07623
-5.16811
-5.20935
-5.17853
-5.04001
-4.70584
1.64929
0.248962
0.0128125
0.119917
0.396027
0.738066
0.989543
1.15203
1.22989
1.26106
1.3374
9.97836
7.66759
5.7757
4.49259
3.67159
3.17131
2.85224
2.6178
2.41363
2.2347
2.13192
10.4157
9.81171
8.64941
7.43111
6.30718
5.36939
4.62403
4.03595
3.55476
3.1499
2.86795
9.54455
9.54669
9.14725
8.49095
7.66657
6.80182
5.9595
5.19319
4.52314
3.95947
3.56124
8.86179
9.02018
8.91041
8.63764
8.14972
7.50269
6.76798
6.02167
5.31773
4.70028
4.23774
8.35899
8.59096
8.57975
8.47752
8.21742
7.80273
7.25463
6.61864
5.94734
5.30112
4.76916
7.89212
8.12148
8.16227
8.17447
8.0793
7.83704
7.44158
6.91835
6.31222
5.68675
5.13394
7.4712
7.64447
7.70525
7.75228
7.73258
7.60311
7.33798
6.93814
6.42967
5.87378
5.37798
7.07998
7.22361
7.27537
7.32403
7.32973
7.25675
7.07582
6.77409
6.35924
5.87636
5.42827
6.69605
6.8309
6.87551
6.919
6.92989
6.88075
6.7462
6.51
6.16934
5.75309
5.34981
6.36513
6.47759
6.50697
6.53861
6.54383
6.50097
6.38915
6.19304
5.90556
5.54694
5.20403
6.10812
6.17416
6.17448
6.18371
6.17281
6.12374
6.01894
5.84505
5.5942
5.28042
4.97255
5.83575
5.87153
5.8515
5.83925
5.80858
5.74619
5.63824
5.47439
5.24759
4.96873
4.71089
5.52541
5.54999
5.51889
5.48869
5.43823
5.35937
5.24238
5.0808
4.86977
4.6164
4.3925
5.26661
5.24831
5.18658
5.12874
5.0532
4.95365
4.8233
4.65967
4.4616
4.23365
4.03503
4.97485
4.91717
4.82866
4.74254
4.63913
4.51573
4.36951
4.20267
4.01828
3.81831
3.65324
4.61017
4.529
4.42329
4.31068
4.17793
4.02903
3.86726
3.70057
3.53612
3.37235
3.24599
4.24455
4.11461
3.97347
3.82208
3.6528
3.47571
3.3021
3.14544
3.01469
2.90352
2.83487
3.83423
3.6399
3.45214
3.25016
3.03561
2.83075
2.65723
2.53157
2.45751
2.4162
2.41618
3.33015
3.05849
2.8176
2.55386
2.29021
2.06939
1.92313
1.86281
1.87557
1.92327
1.98823
2.69713
2.32451
2.008
1.67532
1.3752
1.17514
1.10852
1.16423
1.29944
1.45727
1.60206
1.92576
1.3313
0.937811
0.549063
0.262953
0.164573
0.259805
0.489815
0.77634
1.05238
1.28029
0.370326
-0.0254893
-0.509323
-0.87244
-1.00645
-0.866368
-0.520857
-0.0814651
0.357618
0.736397
1.02277
1.177
-1.50623
-2.03134
-2.19792
-2.02377
-1.57889
-1.00608
-0.417963
0.114194
0.548121
0.859267
-21.5143
-10.2426
-5.86709
-3.86953
-2.30429
-1.25267
-0.633255
-0.173326
0.11381
0.300807
0.495413
-22.6387
-16.0915
-12.5431
-9.51032
-6.55281
-4.33461
-2.83531
-1.83487
-1.19832
-0.761639
-0.394901
-16.19
-16.1238
-15.2086
-13.1304
-10.4199
-7.77823
-5.5648
-3.91945
-2.77266
-1.9715
-1.36114
-14.5973
-14.8801
-14.8134
-14.0906
-12.5738
-10.4643
-8.1697
-6.11993
-4.52411
-3.33827
-2.42039
-14.7246
-14.6997
-14.623
-14.3612
-13.6309
-12.2409
-10.2962
-8.18315
-6.29195
-4.76962
-3.55382
-14.9917
-15.0224
-14.9022
-14.7776
-14.4193
-13.5496
-12.0349
-10.0578
-8.01572
-6.2075
-4.65854
-15.3358
-15.4373
-15.4066
-15.2959
-15.1656
-14.6906
-13.5728
-11.8053
-9.70576
-7.67536
-5.84848
-15.7655
-15.9346
-15.9748
-15.9979
-16.0196
-15.8103
-15.0255
-13.4795
-11.3658
-9.12476
-6.98773
-16.2457
-16.4924
-16.617
-16.8156
-16.9394
-16.944
-16.4409
-15.0995
-12.9842
-10.553
-8.11285
-16.676
-17.0196
-17.2113
-17.5434
-17.8862
-18.1042
-17.816
-16.6389
-14.5076
-11.8821
-9.17186
-16.9194
-17.4896
-17.7386
-18.2172
-18.7824
-19.1746
-19.0706
-18.0208
-15.8398
-12.9904
-10.0257
-17.1452
-17.7758
-18.0665
-18.6839
-19.4095
-19.9834
-20.065
-19.1012
-16.8313
-13.7389
-10.5556
-17.1797
-17.7829
-18.2168
-18.8751
-19.6934
-20.4361
-20.6709
-19.7041
-17.3089
-13.9769
-10.5113
-16.9528
-17.5421
-18.0573
-18.7473
-19.5729
-20.3733
-20.6495
-19.6238
-17.1178
-13.618
-10.0167
-16.5008
-17.0087
-17.5337
-18.199
-18.973
-19.6913
-19.7771
-18.705
-16.1778
-12.5695
-9.04343
-15.734
-16.1063
-16.5766
-17.1606
-17.8152
-18.3301
-18.1894
-16.9457
-14.3956
-10.9686
-7.60719
-14.5841
-14.7931
-15.16
-15.6198
-16.0995
-16.3654
-16.0152
-14.5798
-12.018
-8.82393
-5.60163
-13.0398
-13.0879
-13.3448
-13.6974
-14.0202
-14.0412
-13.4175
-11.8437
-9.34037
-6.49203
-3.65632
-11.1126
-11.0763
-11.3065
-11.6403
-11.8704
-11.6794
-10.7736
-9.02756
-6.65085
-4.16334
-1.78576
-8.94289
-9.0336
-9.40487
-9.79573
-9.93613
-9.51188
-8.28926
-6.31438
-4.04881
-1.95757
-0.142923
-7.08607
-7.51557
-8.1727
-8.67649
-8.7607
-8.12067
-6.58383
-4.41376
-2.2965
-0.501405
0.984216
-6.34438
-7.42888
-8.43776
-8.9335
-8.90214
-7.81237
-5.54731
-3.18436
-1.25686
0.180609
1.21013
-8.02886
-10.4849
-10.2102
-9.27255
-7.66343
-5.73354
-3.68387
-1.91406
-0.598169
0.32213
0.964433
-14.1566
-8.54505
-6.51953
-5.22523
-3.91354
-2.68688
-1.6099
-0.719004
-0.0240169
0.490438
0.825888
0.634688
0.0154538
-0.866317
-1.52451
-1.64412
-1.29864
-1.01155
-0.87186
-0.849368
0.488867
0.00266297
-0.656773
-1.1333
-1.26934
-1.07247
-0.938276
-0.871488
-0.8606
0.356363
-0.0395306
-0.611828
-1.07437
-1.17565
-1.01118
-0.887982
-0.847024
-0.846228
0.225957
-0.0843875
-0.535848
-0.900054
-1.02315
-0.918978
-0.825365
-0.799
-0.813245
0.661022
0.300808
-0.381123
-1.37216
-2.10284
-2.21206
-1.73392
-1.1287
-0.899341
0.496856
0.186834
-0.356581
-1.09231
-1.62603
-1.74691
-1.42791
-1.04245
-0.901182
0.35079
0.0773388
-0.378311
-1.03078
-1.554
-1.62598
-1.35545
-1.00026
-0.887769
0.2356
0.0162876
-0.395779
-0.915705
-1.32896
-1.44144
-1.24847
-0.945033
-0.866742
0.950449
1.42241
1.43273
-0.577592
-0.729475
1.8328
-0.765353
1.70654
1.84766
0.927508
-0.74028
1.70301
-0.563812
-0.313982
0.943673
1.32701
-0.106663
-0.564018
1.33041
0.936867
1.04223
-0.713443
1.53654
-0.319686
1.38291
-0.307689
-0.561221
-0.762832
-1.25832
-0.790873
-0.104192
-0.134953
-0.177626
1.47343
-0.289171
1.44996
-0.296893
1.39659
-0.186593
1.8363
-0.554273
1.47965
-0.554443
1.54212
-0.886092
-0.539089
-0.600525
-0.683874
0.10353
2.00679
-0.780589
1.82598
-0.0171896
-0.572688
1.9938
1.0448
-0.720636
1.80895
-1.31543
-0.507775
-0.921275
-0.033831
-0.766514
-0.751937
-0.504845
0.938703
-0.566878
2.35405
1.45026
0.929317
-0.296965
1.32205
-0.491166
1.51298
-0.419928
1.35826
-0.711531
1.4985
-0.764544
-0.766048
0.0231509
-0.739514
1.0275
1.04926
-0.516885
-0.482441
-1.73662
-0.0100663
-0.726585
-0.0465878
1.51037
1.79717
-0.516628
1.80241
-0.776997
-0.780689
-0.494741
-0.538642
-0.69453
1.36548
-0.579883
-0.725762
0.810748
-0.358507
-0.667345
1.60343
-0.0142978
1.03167
-0.018452
0.520526
1.57736
1.47386
1.57788
-0.607378
-0.576616
0.99978
1.8443
1.49138
1.73859
0.700347
-0.61019
1.44784
-0.0206605
-0.145173
-0.537494
-0.599559
0.0152358
-0.0154804
-0.00611375
-0.0231235
1.68923
-0.512403
-0.695648
1.33707
1.53139
-0.546569
-0.678624
-0.713561
-0.74479
0.211739
-0.459199
0.924133
-0.834662
0.393951
1.841
-0.529832
-0.597953
2.32538
1.06534
1.6543
1.82853
1.74893
-0.518374
1.46674
-0.60334
-0.52991
-0.517303
-0.738
-0.161801
1.10205
-0.483628
-0.66864
1.34041
1.1483
-0.564608
-0.119277
-0.734541
1.00976
-0.587037
-0.528158
-0.145404
-0.0437412
-0.580593
0.79351
-0.0879509
-0.0109341
-0.0156925
-0.552602
-0.919866
0.055867
2.24408
-0.709425
1.49841
-0.69026
1.70555
-0.709032
1.902
1.46761
1.2615
-0.764876
-0.0295103
-0.410326
0.880719
-0.575979
1.46283
1.2373
1.87599
-0.700232
-0.0231814
1.01284
-0.623001
2.0582
-0.0940027
-0.172662
1.51781
0.0101716
1.82755
-0.000800384
1.96605
0.927604
-0.0223245
1.40477
0.622942
-0.168507
1.51665
-0.26915
1.52717
-0.527439
1.97839
-0.48855
-0.0749679
-0.585833
-0.481958
-0.571709
-0.1221
1.77537
-0.653216
-0.0738872
-0.0205268
-0.767514
-0.718472
0.857319
1.8612
1.37954
-0.532973
-1.26711
-0.178962
1.49332
1.65828
1.66322
-0.502931
-0.705622
-0.375772
-0.622515
2.36009
-0.694905
1.46247
-0.262752
-0.908361
0.063264
-0.246347
-0.0371852
-0.95889
1.09108
-0.0569198
1.86755
1.15119
1.39932
-0.587459
1.91463
-0.0141167
-0.582887
0.905351
1.52653
1.56941
-0.53199
0.882152
2.99193
-0.373589
-0.311844
-0.713852
1.83337
2.07022
-0.602691
1.5168
1.48145
-0.196494
1.59033
0.284134
-0.673128
1.33056
1.68787
0.0254822
-0.112971
0.00693832
1.41205
-1.66219
1.67336
0.141557
-0.401441
1.62556
-0.782322
0.704586
-0.41757
1.44961
1.94766
-0.581776
1.56187
-0.232734
-0.242605
1.77444
-0.627539
-0.0721217
-0.78011
1.18959
0.467131
1.51705
0.0255641
-0.711497
1.71216
-0.719414
1.61014
0.391364
-0.137759
-0.758545
0.40499
-0.506969
-0.703892
0.648896
1.70897
1.81535
0.0671508
1.4261
-0.410262
-0.72793
1.07473
1.47913
-0.505048
0.84219
-0.0847793
2.80428
-0.753645
-0.688483
1.62794
-0.53643
-1.00389
-0.509066
1.52569
1.57755
-0.514315
-0.619924
-0.0268181
2.08467
-0.224624
-0.72813
0.024603
-0.628994
1.4707
-0.382167
0.0378762
-0.70906
-0.521877
-0.274167
1.24536
-0.104858
1.01149
-0.0627514
0.270871
1.5274
-0.054546
-0.293368
-0.356063
1.52238
1.02405
1.54576
-0.728552
-0.0441563
-0.450615
-0.718277
0.154418
1.57368
-0.720046
-0.963021
-0.154524
-0.224161
1.62142
-0.0393617
-0.283311
1.40737
1.64372
0.0138771
1.26672
-0.574006
1.75696
-0.400947
-0.293941
-0.599859
-0.119901
-0.684573
-0.735281
1.737
-0.728868
-0.0437239
1.15899
-0.295967
-0.515491
1.52412
1.65022
1.68062
-0.699766
-0.586855
0.993289
1.62927
-0.362147
-0.0283481
-0.57384
-0.771822
-0.00353417
2.05451
0.0675152
1.32135
1.31731
-0.10071
-0.0952479
-0.469568
0.30709
-0.032347
1.45131
-0.0565251
-0.745316
-0.704191
-0.058994
-0.753189
-0.00331376
-0.0480507
0.587418
1.50355
-0.0301389
-0.553267
-0.478226
1.45323
-0.610907
-0.417727
0.58611
-0.392547
-0.141143
-0.643947
-0.750084
-0.155213
1.43077
-0.432019
-1.674
-0.53935
-0.606999
1.59004
-0.256324
-0.323126
-0.691154
1.17233
-0.678942
1.73617
1.04995
1.54467
-0.748065
-0.602916
-0.710805
-0.157322
-0.679375
-0.017003
1.17652
1.19098
0.0238712
-0.158779
-0.0979372
1.55481
-0.0143205
-0.0255605
1.00143
1.40221
2.73017
-0.0233922
-0.601095
1.59293
-0.846885
1.51779
1.63129
1.80743
0.942687
-0.668683
1.87027
1.08636
1.09546
-0.764237
-0.698333
1.52491
-0.499238
-0.725573
0.442718
-0.225105
1.0217
-0.642683
1.26302
1.61921
1.7718
-0.00127246
-0.16432
0.886793
-0.409651
0.524945
2.94254
-0.512191
-0.49987
1.68779
1.07931
-0.932112
-0.09577
-0.52598
2.7675
-0.71132
1.42805
-0.486312
-0.160176
-0.739571
-0.127728
-0.617747
-0.277904
-0.682615
-0.400225
1.4513
-0.445822
0.610549
1.68351
1.53312
1.62891
1.218
-0.00590642
1.72199
1.03873
-0.590831
1.77314
-0.584068
-0.157189
0.0111407
-0.296531
-0.735767
1.34985
1.49351
1.67667
-0.601031
-0.664059
1.46177
1.18194
-0.133706
1.64382
-0.543311
1.64692
-0.0152608
0.274641
-0.77125
-0.269153
-0.0577209
-0.555726
-0.47766
1.21272
0.831684
1.03045
1.60717
-0.124991
-0.755361
0.807831
-0.101431
-1.07272
-0.683845
1.42803
1.9304
1.5961
-0.343288
-0.147688
-0.0338496
1.65364
1.78172
-0.0911135
1.7247
-0.447676
-0.013376
-0.00707553
-0.74906
1.59414
-0.0398274
1.48498
-0.66997
1.719
-0.425722
-0.0200388
-0.037802
-0.759057
-0.0915746
1.6804
1.49212
-0.788864
1.1254
-0.462531
-0.673253
-0.716246
-0.41624
-0.607
-0.502817
1.00735
1.78395
1.71483
-0.801357
-0.513295
-0.233963
0.913987
1.43621
-0.765763
1.89385
1.84226
1.32112
1.19422
-0.480719
-0.578631
-0.731556
-0.351076
0.154174
-1.07431
1.06888
-0.375782
1.30252
1.76505
-0.897993
-0.00623173
1.39298
1.20192
-0.661141
0.782773
1.15188
-0.355682
1.58997
0.961317
-0.493116
-0.400118
-0.192555
-0.0639914
-0.0625716
-0.757028
-0.00117144
-0.645897
-0.461137
-0.471227
-0.733961
-0.476943
-0.213338
1.43211
1.38478
-0.725955
0.165672
1.57696
0.515691
-0.425382
-0.508098
-0.893853
-0.494756
-0.180245
1.50255
-1.01434
1.37179
1.63295
0.560714
-0.524974
1.1369
2.84799
1.67173
1.60334
-0.679281
-0.0636399
-0.760457
1.28092
2.02155
0.28844
-0.124952
1.71105
-0.809656
1.49081
-0.43655
0.0160638
1.55881
-0.0341718
1.18533
-0.17939
-0.733332
-0.48011
-0.853706
-0.470477
-0.487284
1.03029
-0.0217028
-0.169079
-0.749016
0.0694825
1.45391
0.363702
1.04402
-0.314557
1.59077
-0.474752
1.64394
1.83124
1.39728
-0.564041
-0.654742
1.38053
-0.0199252
1.65319
-0.0581678
-0.170842
0.760181
-0.687277
-0.617399
-0.357249
-0.000513435
-0.555014
-0.510548
-0.344941
-0.140996
-0.754841
1.44546
-0.464122
1.65486
2.69557
-0.719812
-0.503784
-0.651375
-0.297046
1.71619
0.936843
0.674114
-0.580436
1.18854
0.0424058
-0.333186
-0.0190574
0.708099
-0.107983
-0.443678
-0.410391
1.29134
-0.48985
-0.605693
-0.688852
1.58908
-0.366601
-1.0855
1.48389
-0.612858
-0.0586406
1.63715
-0.435953
1.77322
1.81007
0.52984
-0.0782931
1.3094
-0.167282
1.58478
-0.195862
1.17297
-0.412417
-0.119153
-0.0130214
-0.00786423
1.44427
-0.639834
-0.588376
1.08899
-0.169089
0.00131347
-0.373266
-0.940862
-0.735082
0.932672
-0.590488
-0.291823
-0.808085
1.59657
-0.525651
1.50162
-0.602457
-0.662641
1.43655
1.74406
-0.543994
-0.723416
0.0671717
-0.497688
1.69481
-0.470567
0.506896
1.46098
1.2688
1.60963
1.65627
2.43194
-0.0365037
-0.733554
-0.695373
-0.0474376
-0.464443
1.36653
1.69477
-0.20221
-0.183671
1.50751
-0.314565
-0.366603
-0.714682
-0.121218
-0.628411
-0.113491
-0.622225
1.35103
1.68099
-0.558376
0.792209
1.69976
0.452643
0.00249335
-0.455859
-0.424744
1.4717
-0.471612
-0.619392
-0.473549
1.69663
-0.0205362
-0.232457
-0.653425
-0.554309
1.10643
1.58798
-0.562216
-0.567614
-0.37491
1.04559
1.66183
1.68857
1.73193
1.6824
-0.44411
-0.3958
-0.598747
-0.738002
-0.336823
1.68772
-0.804393
1.18687
1.46902
-0.0486532
1.69588
1.63558
1.8029
-0.699895
-0.0704956
-0.554975
1.62432
-0.604744
1.45356
1.56648
1.91048
1.22326
0.524092
1.54815
1.53572
1.93769
-0.963636
1.51304
0.992508
-0.460018
-0.822747
2.13609
1.54092
-0.722802
-0.965698
2.15588
-0.536354
-0.529093
-0.545734
1.6019
1.3886
1.04278
0.342804
-0.0375156
1.66891
-0.578288
-0.436022
0.0140598
-0.313027
1.55777
-0.382645
0.88229
1.56107
1.34333
2.82048
1.50372
-0.54003
-0.562406
-0.0357895
-0.341444
0.0227093
-0.430625
0.128006
-0.758028
1.49332
1.56502
-0.0378768
-0.0657206
-0.401184
1.83682
-0.752713
1.59756
-0.492518
1.21321
-0.0462321
-0.0735313
-0.666599
-0.243328
0.903521
1.39626
-0.103244
-0.677543
0.046837
-0.367421
-0.515125
0.665958
1.16624
0.0413497
1.64058
1.53166
-0.457815
-0.492474
-0.761723
-0.669358
-0.0174389
-0.358925
-0.263917
-1.12526
1.06936
0.666429
0.0282655
1.10987
-1.17918
1.63794
-0.0451366
-0.358805
-0.00613965
1.15167
-0.262731
1.653
1.81089
-0.037573
-0.628623
1.80045
1.58999
1.91622
-0.568342
-0.521807
-0.747753
0.176217
0.900065
-0.51639
-0.524492
-0.778241
1.07025
-0.00279783
-0.211611
1.66848
-0.0367279
0.199096
-0.63623
-0.477545
0.124323
-0.539231
0.361676
1.5674
-0.486092
-0.0781065
1.98081
0.00352753
1.50454
-1.22215
0.00544786
-0.667909
1.41135
-0.0525602
-0.700422
-0.795475
-0.0606218
-0.0798749
1.02245
-0.00668026
-0.777958
1.51102
0.572613
-0.39791
-0.46042
-0.196686
-0.395994
1.77708
1.19097
-0.700755
1.64386
-0.557795
-0.389734
0.00915779
-0.202214
1.68049
-0.479894
-0.685
-0.0689354
-0.042834
-0.270927
1.34267
-0.44671
-0.066868
1.1538
0.484991
1.5351
-0.450138
0.746188
1.67015
-0.506
-0.195147
-0.18219
1.57956
-0.718198
-0.617711
0.894601
-0.524212
1.45248
0.910744
0.146728
-0.747701
2.67429
-0.249775
0.148722
-0.69003
1.54432
1.1332
1.0385
1.04312
-0.518362
-0.32255
-0.363404
-0.861886
-0.508915
-1.10832
0.898629
0.403401
-0.635131
1.11219
-0.147781
-0.092468
-0.104495
-0.732355
-0.539611
-0.274361
1.64005
-0.0977577
1.07522
-0.0840535
1.57859
-0.908245
-0.576971
1.44016
-0.740855
-0.184024
1.18363
-0.449804
-0.254652
-0.617156
-0.132176
-0.0726959
-0.831698
-0.0180261
-0.629918
-0.563288
-0.267882
1.60309
-0.544466
2.5848
-0.444836
-0.31758
-0.688114
-0.152848
-0.59839
-0.838949
1.09734
2.2367
1.0932
1.58427
-0.399356
-0.419801
1.1173
-0.296683
-0.712103
2.95807
-0.723908
-0.756725
-0.548774
-0.597335
-0.670537
-0.568237
-0.047927
0.0502328
1.1329
1.22726
-0.283901
1.21023
1.51921
-0.446087
1.0233
2.2814
-0.256442
1.32228
-0.923528
-0.112319
-0.529831
1.09424
-0.467002
-0.464588
-0.36811
-0.606232
1.05913
-0.413132
-0.662576
-0.29952
-0.0351358
1.31515
-0.0132904
0.806156
-0.748651
0.00345104
0.325445
1.13964
-0.536018
-0.0831609
-0.581583
-0.683662
-0.45136
1.19937
1.52523
1.25466
-0.270951
-0.0776202
-0.178024
-0.696526
-1.51769
1.00812
-0.101749
0.866498
1.62858
-0.66364
0.976008
2.11171
-1.12753
-0.63031
-0.728506
-0.749471
1.58104
1.40917
-0.065971
-0.778813
0.0714385
-0.841713
-0.314661
1.62074
1.95811
-0.395975
0.0503326
-0.0611982
-0.455902
1.58015
-0.303937
-0.387602
-0.468931
1.33769
-0.533824
-0.783159
0.212808
-0.49984
1.63267
0.772484
-0.778495
-0.234131
-0.415928
1.01407
0.0765533
-0.192255
-0.79591
-0.660452
-0.518533
-0.756495
-0.453543
1.85922
-0.759098
-0.72595
1.22581
-0.00855858
-0.46156
0.505218
0.0867806
1.15276
1.5167
1.14903
-0.673338
-0.0064058
1.44499
-0.675913
1.16163
1.52
1.00955
-0.171717
1.45369
-0.0798863
-0.618361
1.22062
-0.832589
-0.749633
-0.175041
-0.653781
-0.463305
-0.456871
-0.0191472
1.72036
1.53685
1.63087
-0.30621
1.01544
1.75401
-0.554859
-0.732894
-0.64662
-0.239705
-0.0315973
-0.00436465
-0.732305
-0.615746
1.42686
-0.16073
1.36683
-0.0619854
0.671938
-0.165056
1.05852
0.821337
1.7202
-0.660843
0.0064141
0.519242
-0.230886
1.41018
-0.106164
0.0331854
-0.565282
-0.545852
1.1372
0.929884
-0.262527
-0.623855
-0.104691
-0.000310261
-0.620378
-0.177965
1.17855
-0.832795
-0.0516572
0.731028
-0.470018
-0.463257
-0.498493
-0.679586
-0.721691
-0.00333199
-0.765689
-0.887321
1.43873
2.28302
-0.283288
-0.311895
-0.0452986
1.50483
-0.54674
1.46844
1.37844
-0.762645
1.02603
1.67666
-0.792603
-0.588057
2.03794
0.983069
1.83444
1.19982
1.57633
1.70274
-0.632999
-0.353113
1.39129
1.64652
-0.494005
1.61952
-0.393591
1.5722
1.27567
1.6807
-0.465736
-0.77855
-0.264113
0.977621
1.55113
-0.398944
-0.00925307
1.15024
-0.538635
-0.30496
1.81595
-0.529844
-0.259083
-0.664367
-0.475349
-0.643883
1.67324
-0.664345
1.69977
1.08192
1.75525
-0.720452
1.24831
-0.29153
1.76936
-0.716259
1.55458
1.23322
-0.723848
1.54193
1.35859
-0.686404
-0.0571527
-0.508771
1.32282
1.04925
1.69011
-0.313988
-0.0270038
-0.597107
-0.4253
-0.512196
-0.593066
1.64257
1.39552
2.5868
0.877514
-0.590103
1.72481
-0.188413
1.53219
-0.672323
-0.270678
-0.354123
-0.594706
0.311833
0.0269912
1.47811
-0.452336
-0.68807
1.11556
1.22215
-0.563074
0.967085
1.57897
0.912702
-0.471184
1.43046
-0.513339
-0.672964
-0.228731
-0.175167
1.41515
-0.603961
0.152019
-0.785059
-0.504723
0.22923
0.056879
0.993745
1.54294
0.915996
1.35259
-0.367862
0.977088
1.66126
-0.0215225
-0.668371
1.71989
0.922583
-0.762177
-0.369756
1.06259
-0.522844
1.01007
1.0361
-0.263552
1.24221
-0.513752
-0.295417
1.08031
1.52838
-0.393064
-0.540705
0.90235
-0.00735893
1.46515
1.40301
-0.313098
1.10317
-0.387228
1.19238
1.85735
-0.583751
0.474345
2.31968
-1.81039
1.17803
2.14455
2.51024
2.32354
-0.224051
0.022065
-0.538152
-0.482863
-0.711325
2.11592
1.8323
-0.554083
-0.00502385
1.15991
0.703951
-0.503177
1.52657
0.0234148
1.67375
-0.316717
1.84601
0.91551
-0.0704236
-0.482247
-0.210075
1.45055
1.05012
0.711583
0.951078
1.66369
-0.701309
-0.642629
-0.695967
-0.579138
-0.559248
0.864567
1.71409
1.79694
-0.772701
0.693422
-0.245948
-0.847689
1.10356
-0.0131797
-0.677069
1.72606
1.03013
0.0882394
-0.548202
-0.303937
1.5152
-0.269037
-0.0181106
-0.631268
-0.0249118
-0.264525
1.5994
-0.242632
-0.433797
-0.824357
-0.51754
-0.504136
-0.023433
1.26831
0.845612
-0.479883
1.46105
-0.245928
-0.159063
-0.121844
-0.433757
-0.203183
-0.662841
-0.618714
-0.112358
1.71542
-0.295045
-0.359892
-0.139883
-0.398366
-0.633017
1.18598
-0.822294
1.70526
0.0538068
-0.876254
-0.471224
-0.598817
-0.599173
0.109175
1.83542
1.67922
1.70126
1.22723
1.33906
-0.159428
2.30788
-0.66342
1.98539
-0.0622559
-0.48418
1.3851
1.06213
-0.56747
-0.733264
1.56358
0.479824
1.54018
1.49179
0.0431695
-0.627822
1.28899
1.32865
1.26337
1.44824
1.66866
1.52535
-0.438527
-0.57051
1.70217
-0.467941
1.50811
1.39637
-0.0187404
1.56408
-0.449855
0.910926
1.66361
1.43453
0.967965
-0.0501578
2.10054
-0.00662273
-0.562488
-0.699991
-0.504503
-0.345453
-0.347729
-0.0445908
-0.423447
0.0621545
0.0447137
1.53501
-0.615839
0.761441
1.72386
1.51025
-0.956705
0.0119144
-0.0350076
1.04699
-0.489297
1.74715
-0.456765
-0.107488
1.45628
0.103559
1.74218
-0.277315
1.2171
-0.778644
1.18079
1.01779
-0.321836
-0.364333
-0.59391
-0.50447
-0.140357
-0.49325
-0.234808
-0.5022
1.13973