/*--------------------------------*- C++ -*----------------------------------*\
| =========                 |                                                 |
| \\      /  F ield         | OpenFOAM: The Open Source CFD Toolbox           |
|  \\    /   O peration     | Version:  3.0.1                                 |
|   \\  /    A nd           | Web:      www.OpenFOAM.org                      |
|    \\/     M anipulation  |                                                 |
\*---------------------------------------------------------------------------*/
FoamFile
{
    version     2.0;
    format      ascii;
    class       volVectorField;
    location    "0.77481";
    object      U;
}
// * * * * * * * * * * * * * * * * * * * * * * * * * * * * * * * * * * * * * //

dimensions      [0 1 -1 0 0 0 0];

internalField   nonuniform List<vector> 
21246
(
(4.45944 -1.95866 -1.40905e-18)
(3.80088 -1.35884 0)
(3.97965 -1.34636 0)
(4.02506 -1.17983 9.86552e-21)
(3.99482 -0.926514 -8.02789e-20)
(3.93178 -0.695562 5.56527e-20)
(3.84201 -0.51136 3.09189e-20)
(3.74144 -0.375585 -3.55469e-20)
(3.63762 -0.281288 -9.63364e-20)
(3.53612 -0.223911 5.37831e-20)
(3.44797 -0.200599 0)
(3.8641 -1.10433 3.24279e-18)
(3.23741 -0.742902 1.84275e-19)
(3.36651 -1.04149 -1.31501e-18)
(3.47303 -1.06529 0)
(3.55523 -0.962563 0)
(3.61676 -0.805737 9.56791e-20)
(3.6365 -0.638582 -5.88886e-20)
(3.61437 -0.499911 -1.44291e-20)
(3.56522 -0.394235 3.38715e-21)
(3.50178 -0.323881 4.70738e-20)
(3.43763 -0.289379 -4.22907e-21)
(3.68971 -0.478895 2.17688e-19)
(3.13777 -0.346855 2.50136e-19)
(3.11179 -0.664345 1.51146e-19)
(3.15499 -0.76664 7.12575e-19)
(3.24206 -0.793977 -7.95528e-19)
(3.34597 -0.752067 -1.84892e-19)
(3.43088 -0.658021 1.38203e-19)
(3.47374 -0.55184 0)
(3.47759 -0.458572 -6.83184e-20)
(3.45365 -0.388958 1.42062e-20)
(3.4172 -0.351885 -1.75171e-21)
(3.62611 -0.232183 0)
(3.1927 -0.130546 0)
(3.08597 -0.369473 -6.7185e-19)
(3.05955 -0.477806 7.43254e-19)
(3.10069 -0.568575 2.50054e-19)
(3.18678 -0.605106 2.85992e-19)
(3.28244 -0.586702 -7.24837e-19)
(3.35619 -0.534736 6.96114e-20)
(3.39528 -0.473559 1.0126e-19)
(3.40279 -0.419616 5.69473e-20)
(3.38972 -0.387306 0)
(3.57709 -0.154165 -6.09781e-19)
(3.27905 -0.0375275 4.63879e-19)
(3.15945 -0.197698 6.34462e-19)
(3.09869 -0.278872 -7.09576e-19)
(3.09539 -0.377788 -3.04796e-19)
(3.14216 -0.448255 3.41301e-19)
(3.21537 -0.480007 -9.69813e-20)
(3.28682 -0.477187 -6.51758e-19)
(3.33771 -0.453268 2.87131e-19)
(3.36237 -0.423059 -8.90413e-20)
(3.36639 -0.402659 1.55717e-19)
(3.55148 -0.133075 0)
(3.35333 -0.0057054 -1.50015e-21)
(3.24898 -0.12537 4.4543e-19)
(3.18793 -0.172237 -2.23817e-19)
(3.16215 -0.254841 2.94031e-19)
(3.17533 -0.329399 3.62363e-19)
(3.2172 -0.383403 2.11748e-19)
(3.26869 -0.411681 1.16516e-19)
(3.31286 -0.417901 1.54095e-19)
(3.34009 -0.410653 -1.98686e-19)
(3.35085 -0.403791 8.87902e-20)
(3.5575 -0.125364 0)
(3.41587 -0.00562019 -7.01229e-21)
(3.32967 -0.111789 0)
(3.2822 -0.129909 0)
(3.25121 -0.195481 -2.80698e-19)
(3.24483 -0.260755 0)
(3.26074 -0.318453 -4.81006e-19)
(3.28875 -0.360572 3.11552e-19)
(3.31699 -0.385042 -1.08609e-19)
(3.33667 -0.394803 0)
(3.34548 -0.400916 -1.14472e-19)
(3.5822 -0.145116 1.13602e-19)
(3.4678 -0.0405818 -2.61653e-19)
(3.40347 -0.127448 1.27329e-19)
(3.3686 -0.126871 1.8481e-19)
(3.33873 -0.182345 2.71213e-19)
(3.32324 -0.235643 -8.84765e-20)
(3.32167 -0.288341 1.92052e-19)
(3.32958 -0.332981 1.58933e-19)
(3.34039 -0.36528 -1.9539e-19)
(3.348 -0.384528 6.87142e-20)
(3.3494 -0.397513 -6.21337e-20)
(3.61046 -0.192303 -1.04326e-19)
(3.51779 -0.0800109 7.12697e-21)
(3.4719 -0.153273 -1.74572e-23)
(3.44251 -0.153759 -1.78585e-19)
(3.41607 -0.200526 0)
(3.39712 -0.242499 0)
(3.38463 -0.287533 -6.4559e-20)
(3.37744 -0.328963 3.65477e-20)
(3.37294 -0.362254 1.00844e-19)
(3.36796 -0.385046 0)
(3.35991 -0.401412 0)
(3.64419 -0.245848 -1.03704e-19)
(3.57124 -0.119879 0)
(3.53022 -0.193083 0)
(3.50444 -0.198166 0)
(3.48211 -0.235392 0)
(3.46162 -0.270143 0)
(3.44207 -0.308316 -5.59989e-20)
(3.42394 -0.344593 -7.97854e-20)
(3.40717 -0.375362 7.29933e-20)
(3.39083 -0.397895 1.11353e-20)
(3.37311 -0.415224 1.56628e-20)
(3.68495 -0.304899 6.02183e-21)
(3.62457 -0.16852 0)
(3.58133 -0.242927 2.03199e-19)
(3.5588 -0.250437 -1.73118e-19)
(3.53794 -0.281552 -7.02939e-21)
(3.51559 -0.311999 0)
(3.4909 -0.344465 3.71457e-21)
(3.46468 -0.3754 7.52554e-20)
(3.43826 -0.40219 -8.65962e-20)
(3.41232 -0.422078 1.18141e-20)
(3.38615 -0.43686 -3.87898e-20)
(3.72382 -0.371807 -4.12399e-19)
(3.67166 -0.227204 1.49637e-20)
(3.62558 -0.301391 2.15477e-19)
(3.60457 -0.309143 1.54964e-19)
(3.58329 -0.336438 1.02884e-19)
(3.5589 -0.363714 -1.44462e-20)
(3.53002 -0.391592 -1.12259e-19)
(3.49748 -0.417654 -6.89818e-20)
(3.4633 -0.440077 4.44918e-20)
(3.42928 -0.456094 -2.60019e-20)
(3.39527 -0.468505 5.18139e-20)
(3.75446 -0.440873 1.33198e-19)
(3.71047 -0.289355 1.91385e-19)
(3.66227 -0.364112 -4.83132e-19)
(3.64149 -0.372183 2.95972e-19)
(3.61913 -0.397142 1.00473e-19)
(3.59247 -0.422175 0)
(3.55979 -0.446609 -9.40952e-20)
(3.52178 -0.468581 2.63754e-19)
(3.48092 -0.486722 -2.16263e-19)
(3.43989 -0.498277 5.88527e-20)
(3.39835 -0.507305 -5.97563e-20)
(3.78319 -0.510856 -8.74162e-20)
(3.74549 -0.352697 -5.89287e-20)
(3.6936 -0.428592 -3.73516e-21)
(3.67151 -0.438025 0)
(3.64726 -0.461844 -2.86237e-19)
(3.61783 -0.485628 2.73524e-19)
(3.58116 -0.507712 -2.78044e-19)
(3.53786 -0.526364 -1.14103e-19)
(3.49063 -0.540296 8.59306e-20)
(3.443 -0.546575 0)
(3.3945 -0.550716 0)
(3.80912 -0.585174 0)
(3.77498 -0.419861 1.22569e-19)
(3.71881 -0.496586 -2.65683e-19)
(3.69478 -0.506688 2.48851e-19)
(3.6681 -0.530052 -1.93105e-19)
(3.63538 -0.553395 2.40898e-19)
(3.5943 -0.574058 -6.08113e-21)
(3.54532 -0.589982 1.03049e-19)
(3.49149 -0.599675 -2.04503e-19)
(3.43715 -0.599869 9.47281e-20)
(3.38116 -0.598355 0)
(3.82815 -0.660176 1.59352e-19)
(3.79851 -0.488221 0)
(3.73866 -0.56653 -1.54743e-19)
(3.7124 -0.577826 2.57229e-19)
(3.68286 -0.601707 4.92696e-19)
(3.64617 -0.625609 -2.51981e-19)
(3.59973 -0.645749 0)
(3.54403 -0.659277 1.84113e-19)
(3.4827 -0.664247 0)
(3.42136 -0.657147 0)
(3.35882 -0.646573 6.49226e-20)
(3.84451 -0.735894 6.01905e-19)
(3.82012 -0.557171 -2.57617e-19)
(3.75589 -0.637761 1.57857e-19)
(3.72652 -0.651851 0)
(3.69331 -0.677616 1.34596e-19)
(3.6514 -0.703447 -3.21404e-20)
(3.59782 -0.723974 -1.52027e-19)
(3.53341 -0.734934 -3.05791e-20)
(3.46306 -0.733772 -2.04605e-19)
(3.39431 -0.717422 6.50278e-20)
(3.32559 -0.69665 -1.34751e-19)
(3.8598 -0.815092 4.65915e-19)
(3.84037 -0.628463 -2.24177e-19)
(3.77124 -0.71201 -3.12295e-19)
(3.73826 -0.73001 2.06005e-19)
(3.70039 -0.759496 1.37e-19)
(3.65119 -0.789067 0)
(3.58743 -0.810713 2.14163e-19)
(3.51129 -0.81796 -2.85398e-19)
(3.43014 -0.80795 9.27355e-20)
(3.35404 -0.779358 1.63011e-19)
(3.28001 -0.746639 -4.89184e-20)
(3.87376 -0.897493 -5.87131e-19)
(3.86069 -0.702158 2.51879e-19)
(3.78709 -0.790245 2.988e-19)
(3.75018 -0.814698 -6.19387e-19)
(3.7058 -0.851112 -1.4189e-19)
(3.64526 -0.886817 -1.43562e-19)
(3.56604 -0.909326 1.68926e-19)
(3.47391 -0.909495 -1.26377e-19)
(3.38059 -0.885666 0)
(3.29883 -0.840533 0)
(3.22471 -0.790442 -8.40514e-21)
(3.88846 -0.98385 0)
(3.88502 -0.778644 2.14401e-19)
(3.80826 -0.874622 1.50014e-19)
(3.76654 -0.910979 1.99058e-19)
(3.71109 -0.95985 0)
(3.6309 -1.00385 9.71857e-20)
(3.52761 -1.02386 0)
(3.41471 -1.00946 5.59713e-20)
(3.30985 -0.963937 -4.12649e-20)
(3.2264 -0.897532 2.04185e-20)
(3.15691 -0.828855 -8.38091e-21)
(3.91048 -1.0795 -7.27695e-20)
(3.92327 -0.863764 -8.95638e-20)
(3.84474 -0.972051 0)
(3.79385 -1.03211 -6.66177e-20)
(3.7151 -1.10025 0)
(3.59945 -1.15031 5.58542e-20)
(3.46046 -1.15691 0)
(3.32426 -1.11417 -4.48327e-21)
(3.21318 -1.03659 0)
(3.13617 -0.944866 -2.80953e-21)
(3.07961 -0.858509 2.01372e-20)
(3.95595 -1.19903 1.57702e-19)
(3.98651 -0.920839 1.03687e-19)
(3.90484 -1.09437 4.02481e-19)
(3.83106 -1.19652 -2.02868e-19)
(3.70213 -1.28916 7.39444e-20)
(3.52886 -1.3319 -5.42525e-20)
(3.3459 -1.30222 7.18916e-21)
(3.19244 -1.21151 -8.35105e-22)
(3.08862 -1.09211 5.54989e-21)
(3.03104 -0.974344 -1.58274e-20)
(2.99617 -0.874704 0)
(3.99085 -0.961693 -7.2187e-19)
(4.09409 -1.24682 0)
(3.98487 -1.38187 4.90499e-21)
(3.81533 -1.50452 -2.38166e-20)
(3.60477 -1.56988 0)
(3.37606 -1.55133 7.42953e-21)
(3.16306 -1.44931 -3.2824e-20)
(3.01652 -1.28776 2.25251e-20)
(2.94279 -1.12001 7.89316e-21)
(2.91875 -0.981111 -3.24404e-21)
(2.91712 -0.875197 1.9129e-20)
(3.47985 -1.85582 -4.08175e-20)
(3.67422 -1.4826 0)
(3.4671 -1.79503 -5.78144e-21)
(3.32628 -1.87605 -8.64226e-22)
(3.19068 -1.84271 0)
(3.0325 -1.7066 -8.55223e-21)
(2.89031 -1.4857 -1.45407e-22)
(2.80838 -1.25863 2.25861e-20)
(2.79652 -1.07282 -1.32304e-20)
(2.81823 -0.943233 3.50642e-21)
(2.84589 -0.856825 2.4407e-21)
(5.63551 -1.84845 0)
(5.20964 -1.45943 0)
(4.90368 -1.2035 0)
(4.63922 -0.940263 0)
(4.40681 -0.684366 -9.89646e-20)
(4.20287 -0.474669 6.28747e-20)
(4.01888 -0.319448 8.15612e-20)
(3.84986 -0.208451 -4.35159e-20)
(3.69599 -0.134202 2.40279e-20)
(3.5567 -0.0941816 1.13561e-20)
(3.4383 -0.086711 0)
(6.20632 -0.923738 0)
(5.93548 -0.89606 0)
(5.60637 -0.848342 0)
(5.24918 -0.695143 4.19279e-19)
(4.88742 -0.474057 -3.59312e-19)
(4.55233 -0.251513 1.41494e-20)
(4.26206 -0.0977327 -1.8268e-19)
(4.00605 -0.00875728 1.32664e-19)
(3.78034 0.043802 -1.5307e-19)
(3.58588 0.0680259 1.53144e-19)
(3.42935 0.0657047 0)
(6.37712 -0.556995 -4.09499e-19)
(6.26925 -0.513183 3.47461e-19)
(6.03505 -0.534917 0)
(5.72504 -0.447931 -4.53423e-19)
(5.35493 -0.276317 8.9124e-20)
(4.94932 -0.0337569 4.11843e-19)
(4.54657 0.19098 0)
(4.18811 0.293384 2.83136e-19)
(3.87946 0.293461 -4.72888e-19)
(3.6152 0.268814 7.10165e-20)
(3.40808 0.240286 1.44057e-19)
(6.4626 -0.443824 -5.12296e-20)
(6.41484 -0.323907 2.69541e-19)
(6.24325 -0.333972 -2.01305e-19)
(5.98911 -0.251228 -3.39042e-19)
(5.65351 -0.0991525 1.79702e-19)
(5.25213 0.133331 -1.24937e-19)
(4.81746 0.40603 0)
(4.41624 0.619906 0)
(3.98366 0.680103 9.33343e-20)
(3.61581 0.584735 0)
(3.36162 0.478632 0)
(6.5474 -0.423631 -5.62535e-20)
(6.53161 -0.247009 -1.3368e-19)
(6.38839 -0.248281 2.44989e-19)
(6.16491 -0.151914 -9.16587e-20)
(5.85247 0.00160322 0)
(5.45283 0.231583 6.57846e-20)
(4.982 0.532138 1.17611e-19)
(4.49516 0.816897 1.91537e-20)
(4.04579 0.985536 -1.28239e-19)
(3.60701 0.95236 0)
(3.27292 0.778588 0)
(6.62795 -0.434253 1.32616e-19)
(6.63398 -0.216174 -1.08224e-19)
(6.5059 -0.222292 1.50601e-20)
(6.30014 -0.118113 2.56788e-20)
(6.00324 0.0344315 -5.40072e-21)
(5.60553 0.260642 5.91516e-20)
(5.1091 0.572775 5.68538e-20)
(4.54955 0.915077 0)
(4.01037 1.17355 0)
(3.53301 1.25306 0)
(3.12233 1.09477 0)
(6.69535 -0.45655 0)
(6.71759 -0.214376 1.49959e-20)
(6.60002 -0.234531 0)
(6.40732 -0.129762 0)
(6.12411 0.013035 0)
(5.73227 0.22733 0)
(5.21734 0.532792 -5.40585e-20)
(4.59649 0.915379 0)
(3.96074 1.24531 1.94245e-19)
(3.38865 1.42295 0)
(2.93166 1.38224 0)
(6.74991 -0.489181 0)
(6.78032 -0.239142 2.37364e-20)
(6.67052 -0.276841 5.3801e-20)
(6.48897 -0.175743 -4.15905e-20)
(6.21955 -0.051235 1.10482e-20)
(5.83902 0.140736 9.85613e-20)
(5.31816 0.42298 0)
(4.65072 0.814688 4.61314e-19)
(3.92025 1.20418 -1.88472e-19)
(3.23729 1.46064 6.29688e-19)
(2.69463 1.54018 -1.09918e-19)
(6.79229 -0.52402 -1.33177e-20)
(6.82292 -0.27887 2.76939e-20)
(6.71739 -0.341041 7.30472e-20)
(6.54496 -0.246588 -8.96747e-20)
(6.28853 -0.147966 1.92973e-21)
(5.92331 0.0115379 1.80683e-19)
(5.4106 0.255567 0)
(4.71795 0.611932 -4.47226e-19)
(3.90292 1.04521 0)
(3.11235 1.36459 -1.02521e-19)
(2.46024 1.50864 4.61353e-19)
(6.81263 -0.556615 0)
(6.84627 -0.329957 -3.24679e-20)
(6.73872 -0.421371 -7.01458e-20)
(6.57404 -0.335817 -9.06341e-20)
(6.3292 -0.269652 8.25952e-20)
(5.98133 -0.151415 -1.7562e-19)
(5.48901 0.0405855 0)
(4.79805 0.335569 -3.67548e-19)
(3.91957 0.777007 2.76916e-19)
(3.02517 1.13012 -7.64289e-19)
(2.27564 1.32482 -7.93707e-19)
(6.80353 -0.604704 -6.75423e-21)
(6.84934 -0.399094 4.71504e-20)
(6.72593 -0.505047 -2.77267e-20)
(6.57221 -0.439889 -2.01497e-19)
(6.33834 -0.41201 9.17873e-20)
(6.00747 -0.342446 0)
(5.54241 -0.215568 0)
(4.88391 -0.00616939 2.14782e-19)
(3.97653 0.396167 0)
(2.98907 0.772093 0)
(2.15251 0.993111 6.28732e-19)
(6.77064 -0.678905 -5.34487e-21)
(6.81638 -0.472088 0)
(6.68672 -0.582875 4.17699e-20)
(6.53864 -0.569922 -8.57615e-20)
(6.3154 -0.574106 4.73552e-20)
(5.99943 -0.555629 0)
(5.56181 -0.500694 -1.18201e-19)
(4.95174 -0.386983 2.57876e-20)
(4.06873 -0.13493 2.23777e-19)
(3.01844 0.298888 -5.98184e-19)
(2.13137 0.534533 2.41856e-19)
(6.71252 -0.738688 1.85769e-22)
(6.73734 -0.55939 1.4064e-21)
(6.62004 -0.676778 2.21505e-20)
(6.4698 -0.709936 -4.35742e-20)
(6.25375 -0.752171 -5.68961e-20)
(5.95146 -0.785073 4.93915e-20)
(5.5402 -0.796617 1.16663e-19)
(4.98807 -0.768402 0)
(4.24507 -0.685004 0)
(3.13115 -0.278705 1.99495e-19)
(2.19568 -0.0283445 -3.32913e-19)
(6.61457 -0.791474 -6.5556e-21)
(6.6207 -0.6557 1.62082e-21)
(6.51254 -0.785515 2.08846e-21)
(6.36696 -0.862986 0)
(6.1628 -0.949402 -6.38239e-21)
(5.8794 -1.03411 0)
(5.49605 -1.10585 0)
(4.98836 -1.15045 0)
(4.32086 -1.1485 0)
(3.42756 -0.956463 -3.5468e-20)
(2.3732 -0.665777 -3.60614e-21)
(6.4727 -0.84662 6.28059e-21)
(6.46219 -0.76176 -2.91718e-21)
(6.36127 -0.908113 3.78565e-21)
(6.22558 -1.02897 1.85219e-20)
(6.03958 -1.16269 -3.80533e-20)
(5.78473 -1.30098 1.83333e-20)
(5.44375 -1.43256 0)
(4.99675 -1.54129 1.05297e-19)
(4.41178 -1.60067 -2.21159e-19)
(3.64255 -1.5462 -6.78461e-19)
(2.73451 -1.34618 0)
(6.28304 -0.903117 0)
(6.25416 -0.873331 4.30433e-20)
(6.15972 -1.04145 -3.84837e-21)
(6.03865 -1.2062 -3.95873e-21)
(5.87881 -1.38838 -6.69754e-20)
(5.6639 -1.57891 -5.86935e-20)
(5.37988 -1.76472 0)
(5.0114 -1.92553 -4.6139e-19)
(4.5336 -2.03163 4.59917e-19)
(3.91442 -2.04406 2.89752e-19)
(3.16589 -1.93602 1.83498e-19)
(6.03281 -0.965735 0)
(5.9871 -0.990882 5.41901e-20)
(5.90125 -1.18584 -1.92556e-20)
(5.80166 -1.39475 6.39373e-21)
(5.67846 -1.62474 -1.81726e-21)
(5.51619 -1.86401 1.1287e-19)
(5.3015 -2.09712 0)
(5.02132 -2.30245 1.19014e-20)
(4.65798 -2.45429 2.07733e-19)
(4.19494 -2.53305 1.06826e-18)
(3.62255 -2.51702 4.9363e-19)
(5.71297 -1.04469 -1.85038e-20)
(5.65514 -1.1184 -7.75831e-20)
(5.58288 -1.34134 1.74662e-19)
(5.5138 -1.59011 -3.57571e-20)
(5.4394 -1.86132 -4.77046e-21)
(5.34314 -2.14028 1.92294e-20)
(5.20958 -2.40961 -2.72554e-19)
(5.02731 -2.64767 1.34024e-19)
(4.78762 -2.82681 -3.53676e-19)
(4.46998 -2.92033 -4.13493e-19)
(4.05888 -2.95079 -5.10467e-19)
(5.32487 -1.14607 -9.16427e-20)
(5.25847 -1.25367 3.34733e-19)
(5.20031 -1.49666 -1.36807e-19)
(5.15484 -1.77178 7.55101e-20)
(5.11542 -2.06465 -5.81257e-20)
(5.07715 -2.35736 -1.61715e-20)
(5.02551 -2.63234 9.79831e-20)
(4.94844 -2.86562 0)
(4.82744 -3.03561 0)
(4.63869 -3.13661 1.74747e-19)
(4.36059 -3.19413 -1.27923e-19)
(4.80695 -1.22861 -1.85435e-19)
(4.71156 -1.32251 -2.93663e-19)
(4.64195 -1.53981 0)
(4.61265 -1.78943 -2.16955e-19)
(4.62143 -2.05501 2.06113e-20)
(4.64414 -2.32117 -7.68544e-20)
(4.66364 -2.57108 5.76654e-20)
(4.66329 -2.78025 0)
(4.62349 -2.92132 8.06779e-20)
(4.51488 -2.97869 -1.24297e-19)
(4.30725 -2.97248 -3.45691e-20)
(4.25969 -1.30381 5.66088e-19)
(4.19462 -1.3568 0)
(4.13778 -1.54352 2.24066e-19)
(4.10566 -1.76339 2.57869e-19)
(4.10632 -1.99502 1.12971e-19)
(4.13569 -2.21692 1.3838e-19)
(4.17904 -2.40669 0)
(4.21394 -2.53312 0)
(4.21155 -2.55356 -2.8587e-20)
(4.13278 -2.43948 2.11011e-19)
(3.86588 -2.15061 -7.80059e-20)
(3.84112 -1.39245 -5.69824e-19)
(3.74129 -1.40446 0)
(3.66182 -1.58027 -4.95072e-19)
(3.61759 -1.77354 8.10371e-20)
(3.60961 -1.95932 1.93522e-20)
(3.62981 -2.11048 -2.05847e-19)
(3.66093 -2.20193 0)
(3.68014 -2.19083 0)
(3.64091 -1.97708 -6.10888e-20)
(3.50784 -1.61841 -8.52055e-20)
(3.28373 -1.303 1.91207e-20)
(3.43023 -1.56127 1.55728e-19)
(3.3197 -1.53059 2.39341e-19)
(3.25344 -1.68229 -2.67004e-19)
(3.22153 -1.8407 -2.86004e-19)
(3.2118 -1.95546 -2.88119e-20)
(3.20965 -1.99839 2.36896e-19)
(3.19784 -1.94132 -4.80827e-20)
(3.15516 -1.7297 -7.62775e-20)
(3.05811 -1.35304 2.61627e-20)
(2.99168 -1.05903 -1.57952e-20)
(2.93904 -0.925836 5.372e-21)
(3.00669 -2.02723 1.21201e-20)
(3.05754 -1.66324 2.79449e-19)
(3.0268 -1.82314 -1.9018e-19)
(3.01059 -1.8797 1.10306e-19)
(2.98462 -1.86914 8.07226e-20)
(2.93975 -1.77397 -6.87393e-20)
(2.87506 -1.58049 -1.14671e-20)
(2.8022 -1.29734 3.33881e-20)
(2.78057 -1.0555 6.65635e-21)
(2.79969 -0.91535 3.12431e-20)
(2.81414 -0.842975 -8.16254e-21)
(2.23055 -6.57 0)
(1.81861 -5.00493 1.43805e-18)
(2.41311 -3.82536 5.03608e-18)
(2.72551 -2.9885 7.20271e-19)
(2.86223 -2.36874 -7.80585e-19)
(2.91245 -1.88941 0)
(2.91348 -1.51046 0)
(2.89015 -1.20702 1.00273e-18)
(2.85646 -0.962839 -1.89955e-19)
(2.81713 -0.767469 0)
(2.76905 -0.615658 -7.70219e-19)
(-1.42103 -2.413 0)
(-0.342386 -3.20047 -1.40899e-18)
(0.549662 -3.18321 -3.69515e-18)
(1.35365 -2.8451 -1.02877e-18)
(1.87971 -2.42567 1.38606e-19)
(2.21472 -2.01557 -1.10383e-18)
(2.41164 -1.64353 0)
(2.51682 -1.32284 -1.49161e-18)
(2.56741 -1.05577 2.08103e-18)
(2.59145 -0.839063 5.44818e-19)
(2.5959 -0.669772 -2.45377e-20)
(-1.56242 -0.794391 0)
(-0.873972 -1.36834 3.14864e-18)
(-0.466015 -1.71464 -9.62383e-20)
(0.180477 -1.94726 3.6781e-19)
(0.835105 -1.96962 -3.83559e-20)
(1.36586 -1.81115 -2.17389e-18)
(1.76458 -1.56552 -3.09429e-19)
(2.04589 -1.30064 5.75613e-19)
(2.23609 -1.05331 1.21141e-18)
(2.35752 -0.840566 -1.65805e-18)
(2.42845 -0.67093 7.33161e-19)
(-1.08281 -0.0066739 0)
(-0.468498 -0.479038 0)
(-0.409585 -0.747653 0)
(-0.0215959 -1.05585 -2.86173e-18)
(0.427803 -1.23799 2.18085e-18)
(0.903555 -1.29287 1.01864e-18)
(1.33019 -1.23286 1.18484e-18)
(1.67631 -1.09912 0)
(1.93753 -0.934578 0)
(2.12531 -0.771113 0)
(2.2497 -0.628469 -1.09527e-18)
(-0.564717 0.465016 -5.23992e-19)
(-0.0215957 0.119885 -4.60185e-19)
(-0.116951 -0.046247 0)
(0.132819 -0.346852 0)
(0.397588 -0.578621 -8.7483e-19)
(0.741809 -0.740763 6.3975e-19)
(1.09912 -0.810188 -3.57032e-20)
(1.4306 -0.797475 -1.53711e-18)
(1.71193 -0.72816 2.11841e-19)
(1.93556 -0.630491 3.9019e-19)
(2.09661 -0.527526 8.58671e-20)
(-0.069775 0.678605 4.08595e-18)
(0.396603 0.476094 2.54267e-19)
(0.217588 0.391228 0)
(0.401178 0.137848 3.80754e-18)
(0.547069 -0.0747868 6.59524e-19)
(0.774237 -0.266092 -3.27788e-18)
(1.03891 -0.401093 0)
(1.3144 -0.470735 5.85885e-19)
(1.57372 -0.481546 -7.36801e-19)
(1.79901 -0.450606 4.92315e-20)
(1.97279 -0.397701 -1.56924e-19)
(0.286833 0.761137 2.8746e-18)
(0.729647 0.678517 -2.11342e-18)
(0.554693 0.635158 0)
(0.675996 0.443514 -3.09231e-18)
(0.754405 0.271137 2.58511e-18)
(0.902453 0.0912907 2.68773e-19)
(1.08908 -0.0610058 0)
(1.30116 -0.17024 0)
(1.51864 -0.231976 -5.29479e-19)
(1.72344 -0.252336 -4.21901e-19)
(1.89385 -0.240468 8.67056e-19)
(0.535552 0.799159 -2.51469e-18)
(0.968953 0.788718 0)
(0.832608 0.77763 1.92836e-19)
(0.922949 0.632407 2.43962e-18)
(0.965764 0.498099 -1.99391e-18)
(1.06315 0.343285 0)
(1.19231 0.198867 -1.61307e-18)
(1.35032 0.0783263 9.87508e-19)
(1.52502 -0.00968603 -1.76969e-19)
(1.69989 -0.0643063 0)
(1.84712 -0.0874028 4.72145e-19)
(0.734764 0.828792 4.42476e-18)
(1.15839 0.856747 -2.14393e-19)
(1.05303 0.867481 -2.93326e-18)
(1.1305 0.751951 3.0782e-19)
(1.15693 0.647541 0)
(1.22493 0.517953 -7.89335e-19)
(1.316 0.389752 1.45775e-18)
(1.43318 0.272323 8.73753e-19)
(1.56999 0.175221 -6.71158e-19)
(1.71502 0.102953 -9.20243e-19)
(1.84269 0.0585341 -1.20657e-18)
(0.903985 0.827206 2.19858e-19)
(1.32892 0.886633 3.12157e-20)
(1.23704 0.921231 1.93319e-18)
(1.30556 0.827478 -1.97819e-18)
(1.32249 0.747132 8.80923e-19)
(1.37332 0.639667 -2.62137e-18)
(1.44014 0.529441 -2.04943e-18)
(1.52896 0.422065 1.63236e-18)
(1.63655 0.326073 5.97372e-19)
(1.75656 0.247161 0)
(1.86861 0.193539 -5.93359e-19)
(1.02373 0.782736 -3.52727e-18)
(1.46183 0.888068 3.17144e-18)
(1.38453 0.948513 6.55607e-19)
(1.45044 0.873429 -1.7882e-18)
(1.46274 0.814041 7.73744e-19)
(1.50403 0.725508 1.18792e-18)
(1.55584 0.632224 9.56847e-19)
(1.62568 0.5369 -1.35647e-18)
(1.71195 0.446865 0)
(1.81154 0.367232 1.47533e-18)
(1.90381 0.308867 0)
(1.0995 0.740234 3.68233e-18)
(1.54701 0.895395 -5.19959e-18)
(1.49427 0.968386 2.07273e-18)
(1.5653 0.905077 -1.71131e-18)
(1.57853 0.861711 1.33937e-18)
(1.61647 0.788095 -2.72792e-18)
(1.65993 0.709392 8.65457e-19)
(1.71779 0.625673 1.96087e-18)
(1.78925 0.543234 -9.52281e-19)
(1.87367 0.466029 -7.39961e-19)
(1.9527 0.406687 -9.87183e-19)
(1.16592 0.719214 -7.73343e-19)
(1.61849 0.910279 -6.15586e-19)
(1.58479 0.987854 1.51593e-18)
(1.65985 0.931541 -1.57338e-18)
(1.6751 0.899827 -6.57786e-19)
(1.71288 0.837054 -1.01676e-18)
(1.75223 0.770111 1.55304e-18)
(1.8031 0.696438 1.15701e-18)
(1.86482 0.621684 8.83998e-19)
(1.93905 0.548489 -6.67029e-19)
(2.00972 0.491842 -2.86075e-21)
(1.21649 0.686453 -2.58828e-18)
(1.68701 0.911231 6.12015e-19)
(1.66529 1.00206 4.83081e-19)
(1.74234 0.953829 7.8085e-19)
(1.75851 0.93276 -2.40141e-18)
(1.79722 0.878218 0)
(1.83459 0.82079 0)
(1.88155 0.75539 -6.79547e-20)
(1.93692 0.68774 8.40438e-19)
(2.00439 0.618794 -1.24584e-18)
(2.06749 0.565663 -1.782e-18)
(1.24156 0.654418 -3.67645e-19)
(1.73067 0.917594 0)
(1.72957 1.01871 0)
(1.81295 0.975636 2.73964e-20)
(1.83163 0.96308 5.88925e-19)
(1.87259 0.914535 -8.77468e-19)
(1.90925 0.864907 1.37827e-18)
(1.95425 0.806193 -2.13785e-18)
(2.00537 0.744904 1.57251e-18)
(2.06837 0.679772 0)
(2.1271 0.630039 4.50848e-20)
(1.27135 0.636765 3.32461e-18)
(1.76811 0.930658 2.58354e-18)
(1.78855 1.0364 -1.81159e-18)
(1.87568 0.998335 3.75742e-19)
(1.89808 0.991329 0)
(1.94132 0.947715 1.29709e-18)
(1.97815 0.904315 0)
(2.02222 0.851143 -5.01821e-19)
(2.07049 0.795652 -7.33309e-19)
(2.13052 0.733949 0)
(2.18724 0.686913 0)
(1.303 0.615552 -3.0808e-18)
(1.80397 0.931676 1.96359e-18)
(1.84681 1.04685 0)
(1.93424 1.01914 2.06004e-18)
(1.96097 1.01657 -1.61066e-18)
(2.00561 0.978047 -1.62656e-18)
(2.04307 0.939515 1.8842e-18)
(2.08661 0.891154 -4.98606e-19)
(2.13321 0.840851 1.33832e-20)
(2.19057 0.783353 5.06466e-19)
(2.247 0.738223 -1.44799e-18)
(1.31862 0.591674 1.85402e-19)
(1.82448 0.929493 0)
(1.89654 1.05463 0)
(1.98738 1.03855 -1.52683e-20)
(2.02059 1.03884 -7.80337e-19)
(2.06645 1.00527 4.04647e-19)
(2.1047 0.97069 6.11734e-19)
(2.14763 0.926954 -4.47248e-19)
(2.19327 0.881472 1.81845e-20)
(2.24837 0.828673 1.4457e-18)
(2.30487 0.784896 -6.55254e-19)
(1.33227 0.57079 0)
(1.83594 0.926291 0)
(1.94023 1.0601 -1.05798e-19)
(2.03672 1.05576 -3.41487e-19)
(2.07765 1.05734 3.81935e-19)
(2.12415 1.02847 0)
(2.16285 0.997596 0)
(2.20495 0.959012 -2.31152e-19)
(2.25021 0.918546 0)
(2.30397 0.870898 6.76309e-19)
(2.36182 0.827515 0)
(1.35091 0.550387 -3.13232e-18)
(1.84361 0.916406 -8.83785e-21)
(1.98102 1.05717 9.91832e-20)
(2.08412 1.06522 0)
(2.13213 1.06823 8.62626e-19)
(2.17776 1.04513 -7.66094e-19)
(2.21609 1.01945 -5.34118e-19)
(2.25741 0.987742 -5.90562e-19)
(2.30314 0.953419 6.0171e-19)
(2.3567 0.912055 -2.17858e-19)
(2.41629 0.869766 0)
(1.37165 0.526522 -3.2025e-18)
(1.84533 0.892886 2.24899e-18)
(2.01491 1.0371 -1.79604e-18)
(2.12513 1.05806 -1.33054e-18)
(2.17874 1.06536 1.00743e-18)
(2.22278 1.05186 1.20044e-20)
(2.26075 1.0355 -1.76903e-20)
(2.30271 1.01372 1.81518e-19)
(2.35066 0.98729 2.79087e-19)
(2.40577 0.952884 -2.05213e-19)
(2.46669 0.913111 0)
(1.414 0.488346 -1.16368e-19)
(1.83881 0.847717 1.66273e-19)
(2.03527 0.986357 0)
(2.1504 1.02177 0)
(2.20795 1.04159 0)
(2.25149 1.0458 0)
(2.29192 1.04519 0)
(2.33814 1.03729 -3.99826e-19)
(2.39116 1.02067 4.11945e-19)
(2.45012 0.99347 3.68571e-19)
(2.51391 0.955262 -3.77064e-19)
(1.30429 0.471195 0)
(1.78987 0.746476 -3.63667e-19)
(1.97888 0.904816 1.31401e-18)
(2.10251 0.960571 -7.606e-19)
(2.17623 1.00169 5.84768e-19)
(2.23477 1.03014 0)
(2.29242 1.04978 0)
(2.3544 1.05736 -4.95139e-20)
(2.41936 1.05141 -1.16301e-19)
(2.48621 1.03305 -3.08222e-19)
(2.55447 0.997095 3.88871e-19)
(2.3915 -0.148756 -3.48907e-18)
(1.99496 0.616465 -1.60937e-18)
(2.15311 0.635224 1.44424e-19)
(2.17851 0.769159 9.36625e-22)
(2.19013 0.890094 -3.29672e-19)
(2.22167 0.979046 7.2592e-19)
(2.27675 1.03808 -1.57641e-19)
(2.34698 1.06785 3.18837e-19)
(2.42194 1.07475 -1.46934e-19)
(2.49752 1.06742 -3.84285e-19)
(2.57376 1.04845 4.62182e-19)
(5.98306 -6.24093 1.26105e-18)
(5.16162 -3.52743 -4.11262e-19)
(4.83095 -3.57127 3.85523e-19)
(4.33476 -2.89667 -4.66551e-19)
(3.92177 -2.29297 0)
(3.63026 -1.80063 0)
(3.41961 -1.41239 4.41267e-19)
(3.25702 -1.10859 2.8873e-19)
(3.12456 -0.868908 -1.06206e-18)
(3.0137 -0.679862 -2.20881e-19)
(2.91737 -0.536773 4.63572e-19)
(5.99587 -3.95016 -1.49962e-18)
(5.36224 -0.763834 3.54532e-18)
(5.91799 -1.84755 -7.57534e-18)
(5.55704 -1.89074 8.15364e-19)
(4.93768 -1.69538 0)
(4.40036 -1.45906 4.7487e-19)
(3.97123 -1.18588 1.83199e-19)
(3.64858 -0.935674 7.46405e-23)
(3.40374 -0.725911 -2.70899e-20)
(3.21329 -0.559307 2.41378e-19)
(3.06204 -0.438371 5.01985e-20)
(4.4292 -1.97513 -1.7316e-17)
(4.55246 0.910344 3.54038e-17)
(5.88716 -0.168423 -3.46233e-18)
(5.92006 -0.410282 -8.62653e-18)
(5.50685 -0.629515 0)
(4.97372 -0.738847 8.63515e-20)
(4.45088 -0.707952 -1.79819e-19)
(4.01256 -0.606061 0)
(3.66717 -0.483694 2.64197e-20)
(3.39965 -0.370758 -1.7379e-20)
(3.19171 -0.284824 -5.20029e-20)
(2.73976 -1.02832 1.7134e-17)
(3.58888 1.45367 1.73774e-19)
(5.2415 0.955537 1.39387e-17)
(5.5775 0.884934 -1.4153e-18)
(5.5185 0.484158 -6.19861e-18)
(5.16496 0.156062 1.77561e-18)
(4.70627 -0.0428108 -2.87118e-18)
(4.25408 -0.126396 8.55251e-19)
(3.86301 -0.134778 -5.26795e-20)
(3.5468 -0.106314 0)
(3.29901 -0.0722569 2.44302e-20)
(1.45988 -0.772558 4.11232e-17)
(2.73215 1.41484 -6.60811e-19)
(4.40446 1.51964 -1.46248e-17)
(4.92285 1.7148 0)
(5.13871 1.34874 -5.19148e-18)
(4.99586 0.973413 3.92702e-18)
(4.69023 0.645969 1.59725e-18)
(4.31366 0.41765 -2.88545e-18)
(3.94373 0.280533 4.40841e-19)
(3.6189 0.211627 6.4293e-19)
(3.35057 0.18539 -2.38936e-20)
(0.585248 -0.798169 1.24442e-17)
(2.06509 1.21474 -3.36587e-17)
(3.63937 1.74367 1.24896e-17)
(4.23558 2.14811 8.09901e-18)
(4.59756 1.89996 -2.31291e-18)
(4.61082 1.58222 -7.87389e-19)
(4.46246 1.2275 -2.41943e-18)
(4.19914 0.927408 8.26255e-19)
(3.8966 0.700043 -1.56208e-18)
(3.60224 0.543523 0)
(3.3452 0.446962 -3.97098e-19)
(-0.0117822 -0.924765 -1.97096e-17)
(1.5559 1.00295 1.42568e-17)
(3.00438 1.80952 1.02952e-17)
(3.63084 2.34991 -7.85247e-18)
(4.04939 2.21495 1.33134e-18)
(4.15127 1.98232 0)
(4.12062 1.6568 3.86859e-18)
(3.96321 1.34438 -1.73367e-18)
(3.74237 1.07406 0)
(3.50063 0.859887 8.49875e-19)
(3.27455 0.69926 -5.24362e-19)
(-0.430168 -1.08053 8.37521e-18)
(1.15545 0.813157 0)
(2.48805 1.80511 1.10944e-17)
(3.12365 2.43022 -6.82714e-18)
(3.55436 2.38348 0)
(3.69753 2.22742 -1.53758e-18)
(3.74156 1.94849 5.81409e-18)
(3.66451 1.65525 -2.89783e-18)
(3.51862 1.37598 0)
(3.33515 1.13421 -8.34995e-19)
(3.14665 0.934258 1.88864e-18)
(-0.725579 -1.2232 0)
(0.823288 0.651139 0)
(2.055 1.76377 -2.08989e-18)
(2.69196 2.44148 -5.64951e-18)
(3.11802 2.46388 4.35988e-18)
(3.27782 2.36847 1.49594e-18)
(3.36612 2.13482 -1.97583e-18)
(3.34441 1.8719 0)
(3.25875 1.60227 1.37461e-18)
(3.12895 1.35418 -1.03885e-18)
(2.98936 1.12388 -9.74969e-19)
(-0.941753 -1.33695 0)
(0.534146 0.516843 0)
(1.67862 1.70114 0)
(2.31721 2.41007 2.46003e-18)
(2.72864 2.48762 0)
(2.89576 2.43863 0)
(3.00995 2.24474 1.60566e-18)
(3.02609 2.0136 -2.54788e-18)
(2.98728 1.76049 -4.07151e-18)
(2.90239 1.51887 2.01266e-18)
(2.8085 1.27854 1.88262e-18)
(-1.12849 -1.43001 -7.122e-18)
(0.254066 0.386089 2.19673e-18)
(1.3327 1.61231 0)
(1.97565 2.34452 -2.18332e-19)
(2.37318 2.47117 0)
(2.54665 2.45703 0)
(2.67603 2.29666 1.66952e-18)
(2.71881 2.0938 1.95704e-18)
(2.71599 1.85902 -1.34063e-18)
(2.66931 1.62864 9.36598e-19)
(2.61198 1.39718 -9.75487e-19)
(-1.30619 -1.52001 -3.80153e-18)
(-0.00717597 0.256751 5.77193e-18)
(1.01793 1.50194 0)
(1.65779 2.25281 1.81967e-18)
(2.04473 2.42284 -1.64591e-18)
(2.22544 2.43612 -2.20234e-18)
(2.36454 2.30421 0)
(2.42748 2.12563 3.56179e-18)
(2.45257 1.90915 -2.33431e-19)
(2.43781 1.68996 -8.4915e-19)
(2.41347 1.46653 7.91172e-19)
(-1.45766 -1.60407 0)
(-0.246874 0.129734 0)
(0.722777 1.37043 -1.18943e-18)
(1.35538 2.13598 3.54667e-18)
(1.73612 2.34584 -1.35411e-18)
(1.92607 2.38241 -1.75722e-18)
(2.07276 2.27536 1.35921e-18)
(2.15266 2.11752 -3.36157e-18)
(2.20076 1.91859 -1.00949e-18)
(2.21352 1.7121 0)
(2.22479 1.49308 -7.11159e-19)
(-1.58727 -1.68964 -1.00284e-18)
(-0.481289 -0.00970079 -6.05706e-18)
(0.432674 1.21105 2.45869e-18)
(1.05888 1.98925 7.31512e-18)
(1.43905 2.24002 -3.5491e-18)
(1.64182 2.2987 0)
(1.79681 2.21453 -2.08166e-18)
(1.89315 2.0746 5.20888e-18)
(1.96234 1.89206 -3.32275e-20)
(2.00065 1.69937 0)
(2.04059 1.49307 6.12039e-19)
(-1.70528 -1.78052 -2.83069e-18)
(-0.710226 -0.160179 -5.46549e-18)
(0.150248 1.02772 -1.34804e-18)
(0.767982 1.81336 -5.64076e-19)
(1.15077 2.10453 3.28227e-18)
(1.36832 2.1859 0)
(1.53375 2.12347 0)
(1.64747 1.99957 -1.24686e-18)
(1.73781 1.83248 0)
(1.80199 1.65371 4.26335e-19)
(1.8659 1.46707 3.69638e-19)
(-1.81266 -1.86913 -3.51317e-18)
(-0.936176 -0.319753 -4.92892e-18)
(-0.128414 0.820292 7.32443e-18)
(0.477422 1.60669 -2.69975e-18)
(0.864473 1.93632 2.12927e-18)
(1.09956 2.04249 -1.59923e-18)
(1.27927 2.00132 0)
(1.41292 1.8926 1.51347e-18)
(1.52655 1.74089 -9.92122e-19)
(1.61915 1.57638 -4.27523e-19)
(1.71431 1.40627 -1.03823e-19)
(-1.91422 -1.96065 -9.39044e-20)
(-1.16466 -0.494576 0)
(-0.410334 0.584753 3.57471e-18)
(0.178663 1.36453 -4.56538e-18)
(0.572102 1.72992 -3.12912e-19)
(0.828142 1.86294 1.40894e-18)
(1.02662 1.84399 -4.56813e-19)
(1.18538 1.75114 4.57402e-19)
(1.32666 1.61634 1.81087e-19)
(1.44941 1.46871 2.38404e-19)
(1.57649 1.3141 -1.77856e-19)
(-2.01389 -2.06367 9.94384e-20)
(-1.39744 -0.689493 0)
(-0.699607 0.316746 0)
(-0.134579 1.08042 1.86861e-18)
(0.263867 1.47708 -2.54875e-18)
(0.543214 1.63717 2.17309e-19)
(0.767874 1.6421 8.73601e-19)
(0.959679 1.56879 -3.38468e-19)
(1.13513 1.45576 2.35028e-19)
(1.29035 1.33112 -1.28536e-19)
(1.45448 1.19841 7.2763e-20)
(-2.11399 -2.18335 0)
(-1.63724 -0.907826 0)
(-1.00201 0.0125428 0)