/*--------------------------------*- C++ -*----------------------------------*\
| =========                 |                                                 |
| \\      /  F ield         | OpenFOAM: The Open Source CFD Toolbox           |
|  \\    /   O peration     | Version:  3.0.1                                 |
|   \\  /    A nd           | Web:      www.OpenFOAM.org                      |
|    \\/     M anipulation  |                                                 |
\*---------------------------------------------------------------------------*/
FoamFile
{
    version     2.0;
    format      ascii;
    class       volScalarField;
    location    "0.509371";
    object      k;
}
// * * * * * * * * * * * * * * * * * * * * * * * * * * * * * * * * * * * * * //

dimensions      [0 2 -2 0 0 0 0];

internalField   nonuniform List<scalar> 
21246
(
1.15216
1.63242
1.21218
0.793687
0.476332
0.274506
0.156168
0.088186
0.0495725
0.0280407
0.0165409
0.803644
1.14716
0.991572
0.703142
0.44824
0.269953
0.157152
0.0893061
0.0499166
0.0278765
0.0162329
0.564848
0.954122
0.884117
0.682603
0.460215
0.286038
0.169412
0.0969307
0.054099
0.0300404
0.0173181
0.457749
0.779732
0.789738
0.665113
0.47697
0.306897
0.185781
0.10796
0.0606937
0.0335319
0.0190844
0.391851
0.634918
0.659789
0.591993
0.455495
0.310292
0.194066
0.114211
0.064085
0.0348016
0.0192887
0.35664
0.548474
0.573208
0.52052
0.4095
0.287463
0.184493
0.111061
0.0638411
0.0357035
0.0203777
0.332787
0.486073
0.508171
0.462567
0.367013
0.261254
0.171281
0.105861
0.0624832
0.0357132
0.0206148
0.315762
0.438393
0.456382
0.414171
0.32959
0.23664
0.157517
0.0994064
0.0601022
0.0352572
0.0212254
0.302774
0.400506
0.414522
0.37455
0.298111
0.215172
0.144897
0.0931014
0.0576141
0.0346645
0.0212961
0.291918
0.369134
0.380358
0.3427
0.272774
0.197663
0.134323
0.0875901
0.05526
0.0338983
0.0209554
0.282689
0.342617
0.352097
0.316944
0.252527
0.183683
0.125781
0.0830021
0.0531534
0.033088
0.0209162
0.275268
0.320288
0.328489
0.295725
0.236092
0.172472
0.118962
0.0793268
0.0514625
0.0324904
0.0208552
0.269372
0.301236
0.308762
0.278443
0.223054
0.163795
0.113799
0.0766215
0.0503079
0.0321807
0.0208499
0.26458
0.284713
0.292283
0.264734
0.213237
0.157582
0.110303
0.0749366
0.0497098
0.032111
0.0210514
0.260988
0.270461
0.278331
0.253694
0.205904
0.153395
0.108263
0.0742051
0.0496794
0.0323282
0.0212353
0.258674
0.257918
0.266543
0.245097
0.200966
0.15124
0.10775
0.074512
0.0502988
0.0329047
0.0216269
0.25769
0.246569
0.256551
0.238837
0.198548
0.151352
0.108988
0.0760407
0.0517163
0.0339296
0.0222693
0.257903
0.236454
0.247336
0.233797
0.198117
0.153784
0.112281
0.0790895
0.0541514
0.03557
0.0233393
0.259483
0.227246
0.238613
0.229289
0.198777
0.157848
0.117329
0.0836071
0.057735
0.0381746
0.0250377
0.262828
0.218654
0.230062
0.224976
0.200158
0.163299
0.12413
0.0898024
0.0626817
0.0419483
0.027604
0.268671
0.210541
0.221239
0.220272
0.201507
0.169495
0.132478
0.0979621
0.0695624
0.0474537
0.0316202
0.278902
0.20234
0.211865
0.214217
0.201488
0.17518
0.141712
0.108225
0.0791206
0.0556447
0.0380329
0.292952
0.193876
0.200143
0.206531
0.199657
0.179551
0.151138
0.120481
0.0919743
0.0676378
0.0482324
0.307883
0.194279
0.201884
0.199673
0.1944
0.180219
0.158601
0.133206
0.107521
0.0838128
0.063424
1.12342
1.75935
1.31977
0.962442
0.628602
0.365632
0.201761
0.109017
0.0592971
0.0327557
0.0190411
0.988658
1.36216
1.25794
1.02016
0.750741
0.48677
0.272034
0.148311
0.0794537
0.0423831
0.0233538
0.708973
1.03761
1.11527
0.991275
0.79043
0.559558
0.34444
0.194222
0.106907
0.056138
0.0299266
0.396576
1.02936
1.04031
0.949623
0.792778
0.595464
0.395045
0.239394
0.138496
0.0745758
0.0405327
0.442541
1.10876
1.05908
0.940497
0.790861
0.613086
0.428582
0.2751
0.169994
0.096849
0.0545208
0.515715
1.37293
1.25681
1.0123
0.811501
0.627811
0.45192
0.303149
0.196453
0.121094
0.0721512
0.534836
1.37505
1.50088
1.17866
0.876632
0.65257
0.471241
0.325308
0.219031
0.143004
0.0906207
0.528595
1.28282
1.71314
1.44484
1.00599
0.699107
0.491968
0.343231
0.23806
0.162694
0.10929
0.524606
1.22284
1.76445
1.73021
1.20213
0.776911
0.519449
0.359087
0.254017
0.180321
0.126905
0.520091
1.17904
1.73651
1.94547
1.43899
0.887256
0.557043
0.374851
0.267586
0.196053
0.142881
0.514055
1.14114
1.69357
2.0682
1.68217
1.02424
0.605784
0.392076
0.279593
0.210096
0.158002
0.505824
1.09827
1.63923
2.07969
1.87951
1.1699
0.661289
0.410466
0.290504
0.222724
0.171991
0.497326
1.05395
1.57007
2.02682
2.00022
1.30191
0.716579
0.428956
0.300816
0.234507
0.185316
0.489635
1.00411
1.48234
1.93172
2.037
1.40155
0.764079
0.446105
0.311063
0.246103
0.198838
0.485965
0.954396
1.37998
1.79426
1.9898
1.45013
0.794235
0.460262
0.321781
0.258332
0.21333
0.484629
0.911539
1.27379
1.60652
1.83438
1.44444
0.800041
0.468712
0.333773
0.272902
0.229329
0.482755
0.866346
1.1586
1.40464
1.56164
1.38853
0.785865
0.474688
0.349337
0.29207
0.248632
0.481362
0.820762
1.03725
1.19727
1.28737
1.21784
0.787671
0.48656
0.373893
0.319876
0.274152
0.484103
0.783185
0.923238
1.00634
1.04853
1.02132
0.801019
0.528236
0.420515
0.365788
0.311968
0.498927
0.7687
0.83857
0.857841
0.871069
0.880691
0.810303
0.632651
0.505783
0.436376
0.367037
0.546097
0.826179
0.857296
0.832369
0.81344
0.814404
0.788614
0.703323
0.566715
0.477152
0.381522
0.697716
1.12831
1.17115
1.101
0.977873
0.852834
0.709254
0.571453
0.446683
0.345272
0.257272
0.458023
0.88653
0.967255
0.75302
0.575992
0.450354
0.351648
0.274786
0.213757
0.16528
0.126434
0.341314
0.274378
0.235572
0.212006
0.197012
0.183836
0.16845
0.149644
0.12821
0.105919
0.0844834
0.274666
0.308501
0.116133
0.054555
0.0269195
0.0166911
0.0128753
0.0112368
0.0103872
0.00986413
0.00949876
0.318701
0.442345
0.138198
0.0703647
0.0318701
0.0182911
0.0131314
0.011015
0.00995895
0.00932626
0.00889615
0.35752
0.437104
0.166686
0.0838534
0.0356496
0.020067
0.0135575
0.0109423
0.00966227
0.00890127
0.00835737
0.382219
0.406673
0.179896
0.0909634
0.0379585
0.0216501
0.0139866
0.0109465
0.00946136
0.00858528
0.0079536
0.390831
0.391125
0.186628
0.0939713
0.0400114
0.0229457
0.0143877
0.0110056
0.00933965
0.00836819
0.00768299
0.385377
0.388069
0.194187
0.0977164
0.0434185
0.0240847
0.0148324
0.0111293
0.00929453
0.00823861
0.00751151
0.368328
0.393488
0.204469
0.10372
0.0478965
0.0258279
0.0154756
0.011333
0.00932677
0.00818579
0.00740505
0.34235
0.40592
0.217322
0.111631
0.0531856
0.0280821
0.0165396
0.0117217
0.00944307
0.00820557
0.00737405
0.310978
0.423094
0.23388
0.121823
0.0595701
0.0310863
0.0180032
0.0123181
0.00970115
0.00831652
0.00741811
0.277289
0.441913
0.256519
0.135799
0.0678761
0.035254
0.0200428
0.0132144
0.0101091
0.00851552
0.00753001
0.243022
0.463915
0.28542
0.153986
0.0784463
0.0407922
0.0228121
0.0145025
0.0107137
0.00882129
0.00771414
0.211113
0.492782
0.320583
0.176232
0.0911885
0.047696
0.0263972
0.0162633
0.0115696
0.00926262
0.00798068
0.185931
0.526048
0.364202
0.204378
0.107087
0.0563985
0.031053
0.0186561
0.0127725
0.00989078
0.00835311
0.17014
0.560151
0.418188
0.241286
0.127929
0.0677749
0.0372289
0.0219378
0.0144753
0.0107925
0.00887515
0.166102
0.602352
0.484307
0.288411
0.154669
0.0823585
0.0452546
0.0263453
0.0168529
0.0120827
0.00961658
0.174526
0.64865
0.563662
0.349826
0.190271
0.101749
0.0559615
0.0323478
0.0202025
0.0139524
0.0106912
0.190911
0.686714
0.651806
0.430391
0.239826
0.129049
0.0710161
0.0408515
0.0250558
0.0167307
0.0123037
0.207751
0.707585
0.735845
0.53027
0.308379
0.168296
0.092929
0.0533395
0.0323081
0.0209797
0.0148147
0.218624
0.705802
0.796335
0.641521
0.400738
0.225812
0.126278
0.0727261
0.0437577
0.02782
0.0189272
0.222677
0.680404
0.814395
0.74039
0.514595
0.309046
0.178838
0.104702
0.0631587
0.0396525
0.0261732
0.218156
0.619709
0.776939
0.79238
0.632849
0.423206
0.262472
0.160125
0.098557
0.0619629
0.0401641
0.231239
0.560677
0.712481
0.796326
0.729425
0.562433
0.390032
0.256921
0.165971
0.107172
0.0697953
0.213079
0.455521
0.545888
0.623481
0.639724
0.588861
0.487109
0.369871
0.265716
0.185645
0.127303
0.264459
0.575594
0.579535
0.607002
0.59881
0.55812
0.490717
0.406432
0.322459
0.248761
0.186224
0.214476
0.222478
0.10074
0.044306
0.023772
0.0161005
0.0130695
0.0117066
0.0109983
0.0105865
0.0103338
0.20164
0.186013
0.0845092
0.0471197
0.026438
0.0176568
0.0140802
0.0125217
0.011777
0.0114076
0.0112473
0.223793
0.205629
0.0822258
0.0549913
0.0316695
0.0207487
0.0158311
0.0136746
0.0126871
0.0122442
0.012094
0.243991
0.198381
0.0797325
0.0582947
0.0339733
0.0231382
0.017691
0.0151496
0.0139578
0.0133905
0.0131575
0.2595
0.176549
0.0782533
0.0593435
0.035225
0.0245954
0.0188006
0.0160937
0.0148317
0.0142815
0.0141097
0.27138
0.15639
0.076768
0.0583006
0.035301
0.0253642
0.0195516
0.0168959
0.0157105
0.0153018
0.0153134
0.281051
0.140974
0.0751347
0.0564675
0.0349053
0.0257489
0.0200395
0.0175516
0.0165224
0.0163453
0.0166797
0.288405
0.129363
0.0733496
0.0545452
0.0344946
0.0259352
0.0203773
0.0180541
0.0171465
0.0171217
0.017627
0.294914
0.12065
0.0717812
0.0530325
0.0343553
0.0260477
0.0206593
0.018441
0.0176025
0.0176819
0.0183883
0.301457
0.114416
0.0706157
0.0519585
0.034504
0.0262191
0.0209438
0.0187527
0.0179219
0.0180387
0.0188585
0.308735
0.110266
0.0700412
0.0515237
0.0349358
0.0265373
0.0212727
0.0190255
0.0181338
0.0181956
0.018928
0.316516
0.107452
0.069833
0.0516113
0.0356382
0.0270297
0.0216728
0.0192933
0.0182784
0.0182237
0.0188585
0.324949
0.106108
0.0700681
0.0522162
0.036684
0.0277468
0.0221903
0.019597
0.0183999
0.0181761
0.0186495
0.332184
0.107518
0.0709817
0.0533391
0.0382504
0.0288288
0.022962
0.0200262
0.0185776
0.0181312
0.0184033
0.338315
0.110292
0.0723121
0.0547827
0.0402719
0.0303405
0.0240923
0.020686
0.0189065
0.0181803
0.0182117
0.343522
0.114524
0.0741874
0.0565937
0.0427331
0.0323867
0.0256863
0.0217017
0.019488
0.018411
0.0181551
0.347946
0.120504
0.0768339
0.0588578
0.0456417
0.0350737
0.0278855
0.0232467
0.0204791
0.0189568
0.0183388
0.351678
0.128032
0.0804426
0.0616581
0.0489853
0.0384575
0.0308399
0.0255349
0.0221082
0.020028
0.0189449
0.354837
0.137096
0.0853088
0.0651646
0.0527933
0.0425592
0.0346875
0.0288068
0.0246851
0.0219452
0.0202771
0.357615
0.14782
0.0919134
0.0697132
0.0571947
0.0473723
0.0395124
0.033284
0.0285693
0.025159
0.0228198
0.360307
0.160201
0.100746
0.0758399
0.0624827
0.0529015
0.0452785
0.0390377
0.0340267
0.0301292
0.0272073
0.363644
0.173586
0.112066
0.0842035
0.0691753
0.0592431
0.0517637
0.0457436
0.0408168
0.036829
0.0336813
0.368034
0.189445
0.127048
0.0960518
0.0783832
0.066972
0.0588549
0.0527265
0.0479549
0.0442036
0.0412329
0.38747
0.20953
0.158644
0.132096
0.115346
0.102802
0.0940974
0.0906514
0.0903699
0.0914289
0.0916901
0.780536
1.29877
1.0482
0.833454
0.606478
0.408409
0.268585
0.184595
0.138452
0.115463
0.107021
0.67758
1.01069
0.970537
0.839544
0.663323
0.47237
0.301819
0.195442
0.139746
0.113989
0.106272
0.515833
0.752665
0.845598
0.797124
0.677324
0.517132
0.350673
0.223097
0.145203
0.111996
0.102644
0.338501
0.592595
0.723046
0.733479
0.664278
0.54007
0.390807
0.256546
0.162196
0.113723
0.0969972
0.191279
0.484897
0.621002
0.666677
0.636707
0.546463
0.419718
0.28967
0.185364
0.121958
0.0937938
0.119353
0.41589
0.547211
0.604408
0.600069
0.539152
0.436597
0.317951
0.210962
0.135803
0.0951484
0.107823
0.371842
0.499909
0.553152
0.560275
0.520723
0.440754
0.337568
0.234424
0.152529
0.100846
0.0960372
0.319684
0.460601
0.512103
0.521683
0.49463
0.43302
0.346347
0.251738
0.16848
0.108979
0.0784315
0.245304
0.398708
0.469044
0.483472
0.463497
0.415557
0.344255
0.260621
0.18041
0.116994
0.0654692
0.18807
0.319202
0.414566
0.441578
0.428121
0.390631
0.332644
0.260532
0.186215
0.122498
0.0553938
0.151387
0.243877
0.34612
0.392883
0.388336
0.35984
0.313145
0.251943
0.18498
0.123666
0.0470433
0.125125
0.190887
0.272664
0.337235
0.344421
0.324432
0.28744
0.236032
0.176873
0.120024
0.0398923
0.104113
0.152456
0.213652
0.275511
0.297623
0.285803
0.257395
0.214676
0.163308
0.112166
0.0335506
0.0866061
0.123026
0.168393
0.21885
0.248953
0.245669
0.225041
0.19021
0.146522
0.10173
0.0285598
0.0730406
0.10081
0.134396
0.172943
0.202547
0.206461
0.192998
0.165654
0.129534
0.0913792
0.0247758
0.0624502
0.0842301
0.109285
0.137905
0.163018
0.171385
0.164741
0.144881
0.116096
0.0839206
0.0217881
0.0540122
0.071847
0.0908198
0.112077
0.132426
0.143765
0.144087
0.131981
0.109877
0.0817727
0.0196808
0.0476693
0.0627017
0.0774195
0.0939881
0.111756
0.126971
0.134998
0.130821
0.114212
0.0877954
0.0182171
0.0432972
0.0560343
0.0685071
0.0837261
0.103396
0.124994
0.141151
0.14374
0.130583
0.103031
0.017715
0.0433808
0.0540634
0.066988
0.0836036
0.107756
0.134356
0.152648
0.158137
0.149959
0.124225
0.0243141
0.0498819
0.0573703
0.0695158
0.087597
0.115865
0.138659
0.153768
0.16236
0.162766
0.146766
0.0316964
0.0531508
0.0564881
0.0729778
0.10204
0.129725
0.149446
0.162326
0.169202
0.171802
0.165617
0.0318507
0.0508074
0.0734849
0.108699
0.140448
0.162483
0.174411
0.177174
0.174574
0.171532
0.168316
0.0810355
0.11454
0.151518
0.179452
0.196191
0.200964
0.195433
0.184024
0.172564
0.16477
0.161284
0.826182
1.17248
1.03679
0.797361
0.567922
0.387582
0.263552
0.18609
0.140768
0.116388
0.105657
0.598495
0.945287
0.931536
0.796192
0.610661
0.434803
0.298553
0.206873
0.150669
0.119014
0.10375
0.451448
0.800212
0.854821
0.80318
0.669269
0.503855
0.353042
0.240907
0.167981
0.125035
0.103099
0.326017
0.597956
0.714171
0.76022
0.706447
0.576659
0.423167
0.290573
0.196225
0.137024
0.104588
0.220496
0.418161
0.546768
0.639917
0.673319
0.623702
0.504022
0.364263
0.246023
0.163125
0.11357
0.139877
0.274598
0.397625
0.503505
0.580013
0.598418
0.542272
0.433772
0.314725
0.213051
0.139187
0.0881099
0.181336
0.281679
0.383351
0.477792
0.537234
0.530993
0.459289
0.355496
0.252978
0.16919
0.0627017
0.133906
0.210241
0.294718
0.38848
0.468836
0.499861
0.464104
0.382146
0.287166
0.20023
0.0537894
0.115368
0.175168
0.243845
0.324162
0.406686
0.460972
0.454223
0.394288
0.312584
0.231013
0.0520409
0.111021
0.161371
0.219303
0.286509
0.360923
0.422208
0.437132
0.394935
0.325571
0.252443
0.0527564
0.112218
0.157487
0.2085
0.265363
0.330262
0.390138
0.416395
0.389682
0.328408
0.265208
0.0546799
0.116827
0.158554
0.203662
0.252428
0.30859
0.364088
0.395632
0.379225
0.325371
0.267879
0.0570847
0.122656
0.161407
0.201228
0.24288
0.290559
0.340351
0.374327
0.366492
0.317855
0.263382
0.0595719
0.128565
0.165097
0.200031
0.234399
0.273051
0.315783
0.350311
0.350993
0.308725
0.254174
0.0620205
0.1344
0.16946
0.199782
0.226668
0.255579
0.289676
0.322649
0.331637
0.297957
0.244225
0.0644801
0.139976
0.174439
0.20043
0.220026
0.239018
0.263308
0.292263
0.308008
0.284638
0.235373
0.0671147
0.145638
0.180619
0.202795
0.21558
0.22505
0.239203
0.261711
0.280641
0.268098
0.226186
0.0703076
0.152396
0.189287
0.208135
0.214424
0.215004
0.219532
0.234072
0.251641
0.248134
0.218133
0.0746734
0.161237
0.200381
0.216352
0.216865
0.20953
0.205304
0.211448
0.223991
0.225886
0.20707
0.0797314
0.170459
0.211962
0.226845
0.223318
0.209196
0.196845
0.194835
0.200745
0.203294
0.192434
0.0826604
0.177377
0.222606
0.23874
0.233042
0.213601
0.193955
0.184162
0.183401
0.18348
0.176985
0.0860197
0.182708
0.231429
0.248183
0.241641
0.219536
0.194991
0.178775
0.172086
0.1689
0.16348
0.0852831
0.18642
0.232409
0.248237
0.242469
0.221937
0.196965
0.177385
0.166412
0.160625
0.156383
0.129401
0.205784
0.231906
0.237172
0.230791
0.215368
0.195352
0.176974
0.165111
0.158447
0.155768
0.10655
0.118258
0.126166
0.13146
0.128727
0.1293
0.127095
0.120843
0.110663
0.155637
0.179206
0.198214
0.214793
0.215382
0.201959
0.186551
0.16742
0.143456
0.162211
0.178491
0.198687
0.215743
0.217657
0.205084
0.187918
0.167734
0.150034
0.149585
0.161179
0.177624
0.189806
0.190266
0.179837
0.166698
0.151936
0.139466
0.0905589
0.0669042
0.0297186
0.0172748
0.015238
0.0138588
0.0307071
0.0698305
0.0952189
0.125207
0.0928279
0.0636392
0.0314616
0.0242763
0.0304727
0.0579933
0.0854994
0.114986
0.142896
0.115111
0.0814048
0.0399334
0.0301096
0.0411617
0.0711188
0.103093
0.130177
0.13663
0.117297
0.0883533
0.0474106
0.0360314
0.0485771
0.0768363
0.106087
0.125557
0.00442721
0.00460093
0.00461612
0.0112613
0.0457107
0.00438722
0.0114904
0.00454234
0.00438102
0.0042487
0.0454242
0.00455334
0.00372763
0.00332251
0.00448375
0.00430284
0.00323766
0.0115325
0.00429209
0.00424684
0.00411544
0.00474507
0.00466673
0.0120176
0.00449322
0.00333088
0.00377672
0.0111691
0.0858425
0.0469402
0.00328971
0.00410673
0.00305903
0.00453468
0.0042682
0.00459228
0.0112585
0.00448857
0.00292934
0.00439527
0.00685558
0.00454397
0.00548641
0.0046598
0.0611003
0.0122362
0.00355347
0.0190471
0.00429518
0.00433141
0.04589
0.00440008
0.0057293
0.00572651
0.0043264
0.00412191
0.00456081
0.00440575
0.0864451
0.00581467
0.00528006
0.00524134
0.0520452
0.0101792
0.00828986
0.0042583
0.0425949
0.00428125
0.00460163
0.00423931
0.00329036
0.00433974
0.0056582
0.00471918
0.0397858
0.00429862
0.00429324
0.00459734
0.00953748
0.0730484
0.0346697
0.00807164
0.00449522
0.00462586
0.00437447
0.00599528
0.0984196
0.00436468
0.00328779
0.0099889
0.00454282
0.00441514
0.00744928
0.00440156
0.0722132
0.0263359
0.022208
0.00395788
0.00364131
0.00442642
0.00469908
0.0196888
0.00417223
0.00402283
0.00311878
0.00455165
0.00300187
0.00464654
0.00361463
0.0041922
0.0045058
0.00455912
0.00431651
0.00560125
0.0102405
0.00442418
0.00438439
0.00431573
0.0044938
0.00414205
0.00453069
0.00461034
0.00537986
0.00323233
0.0114712
0.00410536
0.0745352
0.00300234
0.00309833
0.00326139
0.00445123
0.00611067
0.0189942
0.004307
0.00461495
0.00455519
0.00417402
0.00537119
0.0479127
0.00446234
0.00485392
0.00411965
0.0248449
0.00402434
0.00437699
0.00326178
0.00445355
0.00428305
0.0043317
0.00423777
0.00426906
0.00441728
0.0035259
0.00460566
0.00801052
0.00344739
0.00872974
0.00372461
0.00319581
0.00436014
0.00363563
0.00445894
0.00433157
0.00443382
0.0465809
0.00439251
0.00366908
0.00435466
0.00417674
0.00811063
0.00320256
0.00306409
0.0044761
0.00405849
0.00409621
0.00396261
0.00324276
0.00354316
0.0618052
0.00392867
0.0042781
0.00479416
0.00465908
0.0127087
0.00449818
0.00703979
0.00424277
0.00430014
0.00458763
0.012807
0.00354763
0.00341667
0.00427199
0.00666919
0.00460964
0.00440104
0.0043577
0.00373142
0.00330386
0.00467918
0.00319317
0.00432661
0.00357779
0.00338815
0.00462777
0.00441103
0.00438139
0.00309185
0.00434787
0.00433886
0.0113246
0.00439505
0.0040136
0.00422747
0.00448947
0.00690995
0.00450937
0.00426859
0.00426418
0.00318749
0.00275344
0.00536546
0.0264269
0.0104459
0.00319068
0.0044104
0.00908723
0.00421864
0.00343899
0.0242231
0.00388638
0.00425595
0.00426079
0.00460033
0.00346579
0.074951
0.0340691
0.00464584
0.00455845
0.00454582
0.00431742
0.0262727
0.00401375
0.00590363
0.00467539
0.00476337
0.0045166
0.00350507
0.0316314
0.0668531
0.00349204
0.0113556
0.00511772
0.00429681
0.0039568
0.0043657
0.00414129
0.00447476
0.00313826
0.00423593
0.00347485
0.00454425
0.00432635
0.00457336
0.00450399
0.0032279
0.00412187
0.0044759
0.00558974
0.00371929
0.0203352
0.00431516
0.00431965
0.0033786
0.00438856
0.0043287
0.00329262
0.00444592
0.0042778
0.00347506
0.00438864
0.00460097
0.0340822
0.030608
0.00395661
0.00439656
0.0822325
0.00458893
0.00425052
0.00418254
0.00461818
0.0116151
0.00445108
0.0029021
0.0046784
0.00435616
0.00415266
0.00456345
0.004267
0.00333036
0.00444381
0.00300914
0.00437175
0.0475761
0.00415168
0.00419186
0.00459826
0.0113079
0.00465947
0.00435397
0.00755942
0.00456521
0.00409998
0.00308368
0.00491632
0.0041055
0.00368719
0.00347487
0.00413034
0.00456674
0.00424179
0.0276361
0.00435757
0.0033852
0.00614894
0.00422887
0.00445141
0.00370022
0.00423993
0.0501699
0.00427818
0.0527543
0.0038816
0.00465085
0.00356001
0.0398606
0.00855163
0.00458595
0.00447176
0.00394704
0.00404953
0.0110129
0.00431491
0.00451591
0.0189467
0.0112497
0.00868578
0.00437938
0.0106479
0.081095
0.008691
0.00391282
0.00373684
0.00416823
0.00392307
0.00468917
0.00272616
0.0039973
0.0046609
0.0606138
0.00385862
0.0033488
0.00451711
0.00451143
0.00431437
0.00338755
0.00305268
0.00290395
0.0105401
0.0049222
0.0044396
0.0116608
0.0361788
0.00327093
0.00390311
0.00460941
0.00391528
0.00425394
0.00437652
0.00424462
0.0227029
0.00438626
0.00314189
0.00441661
0.00340676
0.0435515
0.00319353
0.00317375
0.0274026
0.00345853
0.00442727
0.00529944
0.00306203
0.00471443
0.0414438
0.00837527
0.00447727
0.00428161
0.00462361
0.00852467
0.00311907
0.00441111
0.0046624
0.00403453
0.00300214
0.00746729
0.00792556
0.00493177
0.00432401
0.0281865
0.00427234
0.00427743
0.00346912
0.00342896
0.00429321
0.00407898
0.00356292
0.00491883
0.0032231
0.00478847
0.0306186
0.0032837
0.0124073
0.00351369
0.00398347
0.0041737
0.00467812
0.00474564
0.00491956
0.00941555
0.0044848
0.00314591
0.0034227
0.00410483
0.00437409
0.0025799
0.0211999
0.045636
0.00324376
0.00468853
0.00395816
0.0970641
0.0186828
0.00313677
0.00419886
0.00276889
0.00512196
0.00357498
0.00434322
0.00389053
0.00443846
0.00461287
0.00449778
0.00413962
0.00444769
0.0111343
0.00320641
0.00320461
0.00495715
0.00458944
0.0043383
0.0772588
0.00324979
0.00394855
0.00424827
0.00796101
0.00759853
0.00545505
0.00546768
0.00428758
0.00393352
0.00357786
0.00421407
0.00522726
0.00422396
0.00458527
0.00432527
0.00557852
0.00352264
0.00425021
0.00445156
0.00413111
0.0194105
0.00473755
0.00464778
0.00332727
0.0318908
0.00404661
0.00260198
0.00433995
0.00347243
0.00439879
0.0042193
0.00440631
0.00316726
0.00326166
0.00426206
0.00339097
0.00400104
0.00445482
0.00373852
0.00368923
0.00453598
0.00453381
0.0375117
0.00252177
0.00384603
0.00427821
0.0180313
0.00461924
0.0269381
0.00433794
0.00349366
0.00411512
0.00473878
0.0358833
0.00697211
0.00338038
0.0044519
0.00359961
0.00412035
0.00459919
0.00442645
0.00457084
0.00419429
0.0213611
0.0045127
0.00435389
0.0107027
0.00443607
0.00946638
0.00419632
0.0093185
0.00331017
0.00327884
0.00467839
0.00447628
0.00463773
0.00648479
0.00357262
0.00450074
0.00448927
0.00322288
0.00461818
0.0167024
0.00460793
0.0385627
0.0042359
0.00396319
0.00290675
0.00341111
0.0132328
0.0285334
0.00416096
0.0041183
0.00431565
0.0046065
0.00257314
0.00338428
0.00423486
0.00336738
0.0299717
0.0282869
0.00449177
0.00433675
0.00459877
0.00529623
0.0376559
0.00417761
0.00454083
0.00437805
0.0307439
0.00432286
0.00303408
0.00313884
0.00577188
0.03254
0.00443141
0.00456565
0.00446382
0.00672522
0.00434284
0.0362104
0.00326555
0.00409736
0.00509214
0.00506427
0.00464008
0.00467395
0.0713148
0.00440962
0.00353684
0.010387
0.00760015
0.00582428
0.00402166
0.00359718
0.00422235
0.00443674
0.00448742
0.0251272
0.00310796
0.00392189
0.00424918
0.00450064
0.00652437
0.00422798
0.00450821
0.00423641
0.00431057
0.00318561
0.00320001
0.00737388
0.00567213
0.00401529
0.0051517
0.00428981
0.00741322
0.00428714
0.00445208
0.0311915
0.0152107
0.00438346
0.00439104
0.00415035
0.00415966
0.00433242
0.00564933
0.0046083
0.00419344
0.00327492
0.0029023
0.0038179
0.00327585
0.00325167
0.00540866
0.0177391
0.00497604
0.00540784
0.00353314
0.00353682
0.0080479
0.00348741
0.00462115
0.00416883
0.00612294
0.00394035
0.00420787
0.00442154
0.00343065
0.00501805
0.0310108
0.00360448
0.00488947
0.0044249
0.00520272
0.00455007
0.0042921
0.00426762
0.00340108
0.00426228
0.00428498
0.00418806
0.00459226
0.0164916
0.00611516
0.0231144
0.00428818
0.00421732
0.00398998
0.00312316
0.00451135
0.0156469
0.00431486
0.0429601
0.0318981
0.00443011
0.00253524
0.00465942
0.0030721
0.0109476
0.00315942
0.0271787
0.00364344
0.00427336
0.00463629
0.00368677
0.00325537
0.00409613
0.0730274
0.00437121
0.00408391
0.00463242
0.00374233
0.00419583
0.0031803
0.00455529
0.00440474
0.00440536
0.00379508
0.00520609
0.00456237
0.00340525
0.00437413
0.00411771
0.00320771
0.00408101
0.0103944
0.00534115
0.00284679
0.00407665
0.00372952
0.00359882
0.00579572
0.0031243
0.0117577
0.00446779
0.0033557
0.00448835
0.00426701
0.00706092
0.00468029
0.0035058
0.0033198
0.00432385
0.0041937
0.00413405
0.00514891
0.00458412
0.0541005
0.00356962
0.0398828
0.00415844
0.00397455
0.00490327
0.00611459
0.00456195
0.00345835
0.00363191
0.0032025
0.0045241
0.00335393
0.0289533
0.00454919
0.00948796
0.00358105
0.00483051
0.0420363
0.00438543
0.00421264
0.00421814
0.00343251
0.00440186
0.00326529
0.00457221
0.00307263
0.00431911
0.00291497
0.00253213
0.0132147
0.00357489
0.00428813
0.0189359
0.0130869
0.0044628
0.00328605
0.00385198
0.00333859
0.00512529
0.0037622
0.00437946
0.0100528
0.00291279
0.00496498
0.0042831
0.00436528
0.00441512
0.00962905
0.00371403
0.00469019
0.00448291
0.00456379
0.0325369
0.0231658
0.00358603
0.00457559
0.00336308
0.00456789
0.00455564
0.00457816
0.00462663
0.00447884
0.00452633
0.0032371
0.0050868
0.010041
0.00304858
0.00443053
0.00443022
0.00449514
0.00376463
0.0193129
0.00459607
0.00411472
0.00352449
0.0173403
0.0114178
0.00472237
0.00391802
0.0102475
0.00443375
0.00446166
0.0111084
0.00421818
0.00456405
0.00444128
0.00650539
0.00399635
0.00389955
0.00455617
0.00409153
0.00641471
0.00614582
0.00456249
0.00304149
0.00292735
0.00532998
0.0103312
0.00463997
0.00427624
0.0119695
0.00306419
0.00320903
0.00460049
0.00418702
0.00475693
0.00433878
0.00459068
0.0109305
0.00344051
0.00905054
0.0150334
0.00379134
0.00454588
0.0500574
0.00466946
0.00430871
0.00534398
0.00448438
0.00441646
0.00441783
0.00324201
0.0051793
0.00352664
0.00441362
0.0103626
0.00442503
0.00468778
0.00433941
0.00438707
0.00443518
0.00449384
0.00455929
0.00433756
0.0690111
0.00438238
0.00425472
0.00457302
0.0181085
0.00425908
0.00450566
0.00617489
0.0626626
0.00421719
0.00449249
0.00296293
0.010103
0.00465189
0.00454032
0.00422716
0.00400682
0.00294831
0.00459891
0.0105596
0.0029168
0.0174598
0.00296933
0.00457816
0.00326763
0.00564078
0.00444223
0.00457949
0.00429301
0.00460785
0.00394919
0.0100647
0.00419309
0.00471622
0.0458542
0.00362132
0.00393917
0.00560309
0.00466377
0.00455762
0.00322088
0.00289056
0.00330108
0.00440079
0.0270244
0.0043152
0.00330728
0.00431031
0.0032544
0.00310265
0.00357101
0.0034537
0.00420166
0.00452782
0.0545878
0.00444389
0.0770482
0.00425364
0.00302836
0.00430355
0.0042096
0.0662668
0.0043815
0.00460451
0.00351718
0.00917481
0.0123415
0.0035695
0.00314714
0.00334327
0.00658242
0.036808
0.00451951
0.0043443
0.0800974
0.00439965
0.00538907
0.00449193
0.00847459
0.00298082
0.00467329
0.00460354
0.0034274
0.00464766
0.00440873
0.00356693
0.00895451
0.0042509
0.00445889
0.00433128
0.00455562
0.00465312
0.00459599
0.00456108
0.00418815
0.0075141
0.00398989
0.00392615
0.0046097
0.00576339
0.00302273
0.00460103
0.00461187
0.00408663
0.00697535
0.0401618
0.00397156
0.00341519
0.00410048
0.00434812
0.0031207
0.00374895
0.00422217
0.00639768
0.00455462
0.0700026
0.00656259
0.0228762
0.00455298
0.00460474
0.0097875
0.0471908
0.00342382
0.00311107
0.0046758
0.00301639
0.0221103
0.00456126
0.00402737
0.0177081
0.00422808
0.0190724
0.00362123
0.00445122
0.00432577
0.00418567
0.00421146
0.00735324
0.00276619
0.00937226
0.0383096
0.00460089
0.0030527
0.00393775
0.00516096
0.00843762
0.00281496
0.00439243
0.00406054
0.00327495
0.00454413
0.00467492
0.00467837
0.0359856
0.0041399
0.00461198
0.00370438
0.00310062
0.00328792
0.00452178
0.00834945
0.00414901
0.00407683
0.00393143
0.00455537
0.00431698
0.0044696
0.0141557
0.00424904
0.00463753
0.00399853
0.00361732
0.00450441
0.00417676
0.00450324
0.00437787
0.00429648
0.0546387
0.00429511
0.0563766
0.00984163
0.0381365
0.00420634
0.00447064
0.00300127
0.00462808
0.003289
0.00525717
0.00429736
0.00517745
0.00387687
0.0557069
0.00418684
0.00316053
0.00454961
0.050419
0.00469614
0.0361982
0.0040866
0.00481781
0.0049039
0.00707967
0.0041928
0.00484908
0.00300137
0.00448832
0.0114022
0.00558485
0.0248353
0.00324988
0.00445909
0.0129854
0.00409918
0.00461273
0.00371943
0.0046132
0.00343897
0.00332418
0.00601357
0.00390346
0.00333876
0.0553341
0.00437581
0.00428378
0.00427626
0.00457165
0.00285757
0.00339834
0.00425644
0.00333118
0.0400882
0.00428711
0.0569094
0.00744774
0.00447953
0.00565613
0.00384919
0.00339889
0.00315176
0.0186113
0.00442449
0.00452625
0.0393707
0.00437428
0.00458736
0.00355203
0.00454339
0.00448437
0.0568818
0.00463061
0.03246
0.0039569
0.00893808
0.00428529
0.00429958
0.00505343
0.00326099
0.0128625
0.00444627
0.00278516
0.00942204
0.00308332
0.00254838
0.00527982
0.00413658
0.00424007
0.0168235
0.00923236
0.00406366
0.0043174
0.00346311
0.00380827
0.00455569
0.00372375
0.0397974
0.00425717
0.00468921
0.00450619
0.00407234
0.00289945
0.00328063
0.00333533
0.0747342
0.00476688
0.00587645
0.00555626
0.00457641
0.00387677
0.00424428
0.00421452
0.0803528
0.00459149
0.0193615
0.0248256
0.00456277
0.00449435
0.00469478
0.0336705
0.0190446
0.0212713
0.00334963
0.00456745
0.00427257
0.00327555
0.0377835
0.00646282
0.0030463
0.00434283
0.00615352
0.00496628
0.00808729
0.00416567
0.011457
0.028706
0.00405136
0.00382531
0.00430218
0.00437908
0.0323232
0.00326783
0.00365341
0.00460001
0.00465444
0.00412023
0.0491393
0.0107375
0.00296775
0.011646
0.00463596
0.00437744
0.014096
0.00907506
0.00462015
0.00300049
0.00313963
0.00412142
0.0522572
0.0045342
0.0044251
0.00426876
0.00563281
0.00306818
0.00435661
0.00717936
0.00461336
0.00455856
0.00468819
0.00327249
0.00442903
0.00503331
0.00424378
0.00455765
0.0471042
0.00428275
0.00342051
0.00350189
0.00446686
0.00350816
0.00537101
0.00452149
0.00456361
0.0044812
0.00304246
0.00449617
0.00427556
0.00442626
0.00369991
0.00718571
0.00319019
0.00269851
0.00429643
0.00867431
0.00422322
0.0046758
0.00421691
0.00458649
0.00322766
0.00414017
0.00329629
0.00412481
0.00420585
0.00450071
0.00453964
0.0279253
0.00546775
0.0100236
0.00468828
0.00264229
0.080053
0.0032087
0.00297596
0.00439799
0.00548806
0.0059884
0.00571647
0.003163
0.00405389
0.00372798
0.00312193
0.0045018
0.0684097
0.00305602
0.00414908
0.00448928
0.00449086
0.00360228
0.00309741
0.00840712
0.0030106
0.0562324
0.0365201
0.00448543
0.00427417
0.00495635
0.0547751
0.00401394
0.00454899
0.00423553
0.00462883
0.00447548
0.00491307
0.00440262
0.00465066
0.0132536
0.00338863
0.00432668
0.00442767
0.00439278
0.00416419
0.00468362
0.00433048
0.00427754
0.00379145