/*--------------------------------*- C++ -*----------------------------------*\
| =========                 |                                                 |
| \\      /  F ield         | OpenFOAM: The Open Source CFD Toolbox           |
|  \\    /   O peration     | Version:  3.0.1                                 |
|   \\  /    A nd           | Web:      www.OpenFOAM.org                      |
|    \\/     M anipulation  |                                                 |
\*---------------------------------------------------------------------------*/
FoamFile
{
    version     2.0;
    format      ascii;
    class       surfaceVectorField;
    location    "0.509371";
    object      Uf;
}
// * * * * * * * * * * * * * * * * * * * * * * * * * * * * * * * * * * * * * //

dimensions      [0 1 -1 0 0 0 0];

internalField   nonuniform List<vector> 
32369
(
(6.80246 -5.09573 8.08716e-19)
(5.06086 -5.35517 -3.27658e-18)
(9.23349 -3.79913 -4.31335e-18)
(6.11948 -3.91264 3.10661e-19)
(5.02724 -4.77217 8.1122e-20)
(7.04655 -2.63411 2.48319e-18)
(5.78442 -3.12071 -8.2704e-20)
(5.1062 -3.95619 -2.93532e-20)
(6.4409 -2.44199 -1.42146e-19)
(5.4771 -2.48018 6.29975e-20)
(5.07888 -3.23159 -1.27483e-19)
(6.06257 -2.15235 6.31531e-19)
(5.15969 -1.9975 -3.46934e-20)
(4.94097 -2.61998 -1.73402e-19)
(5.59178 -1.77551 -7.0287e-19)
(4.85562 -1.62828 -2.54635e-20)
(4.74388 -2.1245 -1.97709e-19)
(5.19071 -1.46667 1.36985e-19)
(4.5717 -1.34371 6.32534e-20)
(4.52262 -1.73132 -1.24925e-19)
(4.8362 -1.21026 6.61014e-20)
(4.31329 -1.12017 0)
(4.29934 -1.42227 0)
(4.52885 -1.00914 -5.57792e-20)
(4.08095 -0.942459 -2.05447e-20)
(4.08628 -1.17811 -1.50018e-19)
(4.2593 -0.848844 2.36941e-20)
(3.8733 -0.800877 -4.88109e-21)
(3.88932 -0.985421 7.55937e-20)
(4.02179 -0.719718 -3.42514e-20)
(3.70763 -0.842836 1.32728e-19)
(3.81374 -0.627304 4.3059e-20)
(3.64971 -0.683953 5.0536e-19)
(3.31301 -5.45647 -2.99348e-18)
(1.91327 -4.8138 -2.28872e-18)
(3.92432 -4.73232 -2.39321e-19)
(2.81072 -4.74882 -1.63009e-18)
(4.30608 -4.00986 -1.34427e-19)
(3.43834 -4.33189 2.71197e-18)
(4.48399 -3.32455 -3.59648e-19)
(3.85366 -3.77477 -4.33377e-20)
(4.499 -2.72179 -3.38691e-19)
(4.07442 -3.20031 -8.0288e-19)
(4.40706 -2.21913 -2.90578e-19)
(4.13797 -2.6629 6.82337e-19)
(4.25656 -1.81343 -2.09244e-19)
(4.09528 -2.19395 -1.08032e-19)
(4.08189 -1.49131 -1.29285e-19)
(3.99096 -1.80339 0)
(3.90399 -1.23698 -7.68038e-20)
(3.85736 -1.48637 4.74707e-19)
(3.73489 -1.03548 2.03811e-19)
(3.71372 -1.23296 -4.0716e-20)
(3.56955 -1.04085 8.71136e-20)
(3.55486 -0.869383 -5.76302e-19)
(1.57551 -4.43992 -1.04738e-18)
(0.700155 -3.79284 5.686e-20)
(2.34476 -4.46353 1.16309e-18)
(1.46538 -3.99325 -1.81374e-18)
(2.94093 -4.13673 2.98161e-18)
(2.11537 -4.02203 2.50034e-18)
(3.37863 -3.67202 -2.25791e-19)
(2.69575 -3.7918 1.88555e-18)
(3.65751 -3.15361 2.54399e-19)
(3.12342 -3.39991 -1.42271e-18)
(3.79089 -2.64774 1.08593e-18)
(3.39783 -2.95129 5.78237e-20)
(3.81166 -2.19549 1.88554e-19)
(3.53806 -2.50471 1.31573e-18)
(3.75928 -1.81309 5.9311e-19)
(3.57589 -2.09636 2.73662e-19)
(3.66771 -1.50064 6.16081e-19)
(3.54676 -1.7436 -4.86609e-21)
(3.55957 -1.25182 -1.92128e-19)
(3.48006 -1.45178 7.78104e-20)
(3.39609 -1.22141 7.35805e-19)
(3.41931 -1.04542 -6.0141e-19)
(0.781082 -3.43545 -3.86692e-19)
(0.386024 -3.10558 -2.608e-18)
(1.29325 -3.68057 -4.76998e-19)
(0.852897 -3.27179 3.22207e-20)
(1.89293 -3.7592 1.51038e-18)
(1.27176 -3.44821 2.35145e-20)
(2.43203 -3.5904 9.46814e-19)
(1.78755 -3.45115 4.73311e-18)
(2.84557 -3.25403 -1.71412e-18)
(2.2709 -3.28522 -2.31028e-18)
(3.13105 -2.8494 1.86569e-19)
(2.65743 -2.99488 -7.48218e-19)
(3.29888 -2.43666 1.49738e-18)
(2.92854 -2.63877 1.70858e-18)
(3.36995 -2.05372 -2.56084e-19)
(3.09413 -2.26923 -2.55791e-19)
(3.36972 -1.71964 -5.22753e-19)
(3.17724 -1.92095 -7.19314e-19)
(3.32689 -1.43915 9.42542e-19)
(3.19964 -1.61157 5.91057e-19)
(3.17653 -1.35458 9.33428e-19)
(3.25327 -1.19495 2.09901e-19)
(0.545162 -2.90148 -2.70434e-18)
(0.33589 -2.66212 -2.1386e-18)
(0.802195 -3.08492 5.59799e-19)
(0.673366 -2.7796 -1.01786e-18)
(1.16866 -3.19578 2.75362e-18)
(0.891021 -2.93026 1.09636e-18)
(1.60985 -3.20566 2.15091e-18)
(1.24938 -2.99724 2.58528e-18)
(2.0507 -3.08386 -1.42012e-18)
(1.65081 -2.96517 -2.50385e-18)
(2.4231 -2.83338 5.02962e-19)
(2.03668 -2.81231 1.35021e-18)
(2.69952 -2.50819 1.59972e-19)
(2.3628 -2.56841 5.60905e-19)
(2.88249 -2.16228 -5.77871e-19)
(2.6091 -2.27424 -1.26822e-18)
(2.99035 -1.83204 2.43779e-19)
(2.77726 -1.96579 9.93294e-19)
(3.04125 -1.53729 4.30496e-19)
(2.88167 -1.67086 4.31707e-19)
(2.92485 -1.41689 -8.33545e-19)
(3.03521 -1.26638 4.42996e-19)
(0.496385 -2.48797 -7.46821e-19)
(0.330191 -2.28405 4.62609e-19)
(0.687793 -2.61808 -5.39046e-19)
(0.595684 -2.3445 -1.09782e-18)
(0.934491 -2.72808 8.08683e-19)
(0.740878 -2.47751 1.06231e-18)
(1.23949 -2.77539 -1.52394e-18)
(1.00215 -2.55078 -4.10415e-19)
(1.58395 -2.72942 -6.06367e-20)
(1.30436 -2.56264 -2.93336e-18)
(1.92703 -2.58748 1.48663e-18)
(1.62936 -2.49112 2.96007e-18)
(2.23104 -2.36947 -7.04208e-19)
(1.94082 -2.3412 -1.20436e-18)
(2.47257 -2.10656 1.48995e-19)
(2.2104 -2.13317 4.87079e-19)
(2.64576 -1.83106 1.23795e-18)
(2.42426 -1.8932 1.10405e-18)
(2.75976 -1.56812 -7.83242e-19)
(2.57988 -1.64744 -7.57912e-19)
(2.67192 -1.4204 -9.33926e-19)
(2.81808 -1.31596 2.10334e-19)
(0.477971 -2.13559 2.67865e-19)
(0.344211 -1.99319 -3.36412e-19)
(0.618413 -2.21612 3.28647e-19)
(0.571027 -2.00184 8.45409e-21)
(0.807 -2.30673 0)
(0.675221 -2.09858 -1.26066e-18)
(1.04127 -2.36002 -1.50462e-18)
(0.87646 -2.16252 6.59459e-19)
(1.31363 -2.35529 -3.41832e-19)
(1.11186 -2.18647 -1.1733e-18)
(1.60389 -2.28171 7.15685e-19)
(1.37681 -2.15604 6.74877e-20)
(1.88544 -2.14349 -1.61136e-19)
(1.64969 -2.06829 4.91349e-19)
(2.13445 -1.95665 1.40868e-18)
(1.90742 -1.93 -3.43796e-20)
(2.33669 -1.743 -6.73246e-19)
(2.13296 -1.75511 5.36406e-19)
(2.48828 -1.5237 -8.43512e-19)
(2.31546 -1.56325 -4.09594e-19)
(2.44153 -1.37925 -2.67231e-19)
(2.58181 -1.30202 0)
(0.473895 -1.84851 -6.25092e-19)
(0.352868 -1.74461 2.82564e-19)
(0.588838 -1.88718 -1.44433e-18)
(0.559839 -1.72057 -7.61134e-19)
(0.740488 -1.95468 -8.15248e-19)
(0.645183 -1.78733 -8.72396e-19)
(0.928418 -2.00021 1.18247e-18)
(0.809215 -1.83679 6.36774e-20)
(1.14872 -2.00918 -8.28876e-19)
(1.00063 -1.86058 9.71068e-19)
(1.39144 -1.97248 -1.75304e-19)
(1.21961 -1.84855 -1.20052e-18)
(1.64028 -1.88804 7.45231e-19)
(1.45377 -1.79664 5.93886e-19)
(1.87676 -1.7616 -8.85078e-19)
(1.68756 -1.70576 -8.33914e-19)
(2.0858 -1.60545 8.45652e-19)
(1.90676 -1.58159 5.3417e-19)
(2.26004 -1.4349 1.66699e-19)
(2.09749 -1.4357 7.24087e-19)
(2.23826 -1.28772 -2.65618e-19)
(2.39145 -1.24568 1.41733e-18)
(0.474988 -1.60524 2.92426e-19)
(0.367136 -1.52173 6.34644e-19)
(0.576329 -1.61467 -1.73427e-19)
(0.559693 -1.47501 -4.63606e-19)
(0.705878 -1.66289 -1.01834e-19)
(0.631663 -1.52241 2.26377e-19)
(0.863467 -1.69809 -2.44875e-19)
(0.771985 -1.56025 -8.70217e-19)
(1.04779 -1.709 8.20331e-19)
(0.933583 -1.58005 4.70557e-19)
(1.25368 -1.68956 -5.61937e-19)
(1.11941 -1.57541 2.6096e-21)
(1.47134 -1.63671 -8.00028e-19)
(1.32203 -1.54319 -8.15347e-19)
(1.68792 -1.55121 4.33864e-19)
(1.53126 -1.4823 5.56929e-19)
(1.89087 -1.43835 3.2818e-19)
(1.73679 -1.39403 -2.62121e-19)
(2.07152 -1.30769 4.10179e-19)
(1.92608 -1.2838 7.15332e-19)
(2.0756 -1.16374 -4.73036e-19)
(2.22286 -1.15775 2.89045e-19)
(0.494186 -1.39737 1.18158e-20)
(0.396616 -1.34796 0)
(0.580022 -1.38201 -1.37012e-19)
(0.572193 -1.26966 3.25928e-19)
(0.690952 -1.41503 -4.30151e-19)
(0.630437 -1.29683 -8.3657e-20)
(0.826141 -1.4407 -2.95091e-19)
(0.752859 -1.32284 -2.69292e-19)
(0.984498 -1.44941 -2.92774e-19)
(0.892729 -1.33652 3.0353e-19)
(1.16286 -1.43732 -1.56121e-19)
(1.0544 -1.33342 -3.37109e-19)
(1.35493 -1.40198 4.07035e-19)
(1.23278 -1.3114 3.478e-19)
(1.55173 -1.34226 -6.50371e-20)
(1.42088 -1.26886 -1.63306e-19)
(1.74348 -1.25921 1.74492e-20)
(1.61145 -1.20501 -7.25131e-19)
(1.92117 -1.15679 -3.48283e-20)
(1.79405 -1.12213 1.68395e-19)
(1.94327 -1.03034 -4.62985e-19)
(2.07239 -1.02744 1.00933e-18)
(0.514331 -1.22877 2.80056e-19)
(0.423523 -1.21365 0)
(0.589897 -1.18457 4.12618e-19)
(0.580035 -1.09751 2.89068e-19)
(0.686748 -1.20184 9.62807e-20)
(0.631914 -1.10339 8.477e-20)
(0.805308 -1.21737 2.70376e-19)
(0.742946 -1.11647 3.53241e-20)
(0.944667 -1.22151 3.25773e-19)
(0.867768 -1.12221 3.42577e-19)
(1.10263 -1.2116 9.28647e-20)
(1.01226 -1.11705 6.61059e-20)
(1.27476 -1.18582 -1.789e-19)
(1.17266 -1.09952 5.59798e-20)
(1.45447 -1.14266 -7.78366e-19)
(1.34399 -1.06813 -1.33534e-19)
(1.63391 -1.08178 -6.46858e-19)
(1.52117 -1.02135 -1.24438e-19)
(1.80552 -1.00597 -1.75804e-19)
(1.69569 -0.959465 -2.48814e-19)
(1.84033 -0.888642 1.17998e-20)
(1.96129 -0.909919 1.55295e-18)
(0.515247 -1.08033 -2.06797e-20)
(0.438884 -1.07084 0)
(0.591947 -1.01003 -2.52616e-20)
(0.578291 -0.932037 -8.72256e-20)
(0.683298 -1.01312 2.97437e-20)
(0.631327 -0.925213 3.42123e-20)
(0.792452 -1.01884 7.66839e-20)
(0.73651 -0.929053 8.57759e-21)
(0.919457 -1.01736 1.10561e-19)
(0.851982 -0.927918 7.44156e-21)
(1.06319 -1.00682 2.79489e-20)
(0.985143 -0.919668 6.63335e-20)
(1.22065 -0.98606 1.16419e-19)
(1.13308 -0.903722 -4.07312e-20)
(1.38698 -0.953655 5.16175e-19)
(1.29212 -0.879099 2.18358e-19)
(1.55609 -0.908529 2.94001e-19)
(1.45871 -0.844196 3.36901e-19)
(1.72187 -0.851657 -8.99758e-20)
(1.62661 -0.797852 -8.11902e-20)
(1.77084 -0.741835 0)
(1.87839 -0.777795 0)
(0.515894 -0.932992 -5.76967e-20)
(0.455631 -0.930723 -1.02547e-19)
(0.592615 -0.844781 -3.77248e-20)
(0.580196 -0.773267 -2.04854e-20)
(0.680547 -0.83804 1.59079e-20)
(0.633167 -0.756622 -8.97033e-20)
(0.784044 -0.836072 -6.05536e-20)
(0.733387 -0.753268 2.68483e-20)
(0.903366 -0.829483 -4.3282e-20)
(0.842511 -0.746468 1.8262e-21)
(1.03789 -0.817286 8.36297e-21)
(0.968484 -0.735171 -6.00967e-20)
(1.18547 -0.799072 3.33232e-20)
(1.10842 -0.719593 1.30013e-20)
(1.34241 -0.773708 2.5265e-20)
(1.25923 -0.699369 -1.15878e-20)
(1.50406 -0.739296 0)
(1.41811 -0.672913 4.62243e-20)
(1.66615 -0.69375 0)
(1.58065 -0.637584 -1.64263e-19)
(1.7219 -0.591726 -1.8313e-19)
(1.82431 -0.622036 -8.4031e-19)
(0.527475 -0.798296 -7.47542e-20)
(0.468468 -0.827426 1.92421e-19)
(0.598611 -0.689832 -6.52422e-20)
(0.580461 -0.633947 4.23749e-20)
(0.681336 -0.672755 -9.07059e-20)
(0.635258 -0.600171 1.16883e-19)
(0.780007 -0.663471 9.24098e-20)
(0.73281 -0.587067 -4.21516e-20)
(0.894223 -0.652077 -8.22364e-21)
(0.83842 -0.573855 3.98681e-20)
(1.02311 -0.637945 -6.29807e-20)
(0.960537 -0.559183 -1.65675e-19)
(1.16462 -0.621257 -2.92398e-20)
(1.09607 -0.543487 8.36025e-20)
(1.31539 -0.601231 3.04388e-21)
(1.24202 -0.526853 -3.46563e-20)
(1.47107 -0.575681 -9.77452e-20)
(1.39564 -0.507887 -2.04241e-19)
(1.62705 -0.542334 -3.46318e-19)
(1.55374 -0.483505 2.75071e-20)
(1.6915 -0.449571 1.66294e-19)
(1.77839 -0.493259 -1.17342e-19)
(0.521916 -0.672237 3.33144e-19)
(0.480336 -0.706979 1.11928e-19)
(0.598728 -0.541653 2.19435e-19)
(0.576663 -0.487976 1.48766e-19)
(0.682174 -0.513552 1.86515e-19)
(0.637054 -0.443814 1.86804e-20)
(0.779682 -0.497006 -1.03405e-19)
(0.734861 -0.42371 2.5485e-19)
(0.891903 -0.480995 -9.63402e-20)
(0.839883 -0.405179 -1.34413e-19)
(1.01833 -0.465035 -4.43694e-20)
(0.961236 -0.387637 -1.07731e-19)
(1.15692 -0.449812 9.14742e-20)
(1.09551 -0.372192 -6.37481e-20)
(1.30427 -0.434882 -2.24297e-19)
(1.2395 -0.359488 1.04276e-19)
(1.45623 -0.41775 -1.03354e-19)
(1.38995 -0.348043 7.54587e-20)
(1.60914 -0.394797 5.26193e-19)
(1.54493 -0.334005 1.93712e-19)
(1.68119 -0.310234 1.84008e-19)
(1.76065 -0.354617 2.76183e-19)
(0.518258 -0.53914 -6.80301e-20)
(0.499343 -0.578809 -3.76423e-19)
(0.599857 -0.391018 -3.89365e-20)
(0.578267 -0.338645 5.64313e-19)
(0.685166 -0.354467 6.1485e-20)
(0.643924 -0.285849 -4.3636e-19)
(0.783714 -0.331969 2.63303e-19)
(0.742137 -0.25959 8.34589e-19)
(0.896684 -0.312121 -1.48626e-19)
(0.848219 -0.236526 -6.25789e-19)
(1.0236 -0.295083 -1.31363e-19)
(0.971432 -0.217075 1.86487e-19)
(1.1621 -0.282192 -6.856e-20)
(1.10727 -0.20313 -4.01054e-19)
(1.30836 -0.273249 4.09038e-19)
(1.25171 -0.195742 9.00486e-20)
(1.45787 -0.265176 3.64606e-19)
(1.40023 -0.193148 4.51531e-19)
(1.60728 -0.252877 -1.48999e-19)
(1.55216 -0.190506 3.82538e-19)
(1.68532 -0.176829 -1.68476e-19)
(1.75636 -0.222632 -1.20916e-19)
(0.528189 -0.408208 1.90295e-19)
(0.513742 -0.471327 -1.8373e-19)
(0.609046 -0.240883 2.67556e-19)
(0.579774 -0.198226 1.83047e-20)
(0.694303 -0.19443 2.0127e-19)
(0.65434 -0.129895 -7.52431e-21)
(0.794322 -0.165513 9.21293e-20)
(0.755114 -0.0942605 7.80065e-19)
(0.910098 -0.142205 -3.75125e-19)
(0.865234 -0.0656898 -7.19734e-19)
(1.04028 -0.125265 -2.06885e-20)
(0.993375 -0.0450578 1.86969e-19)
(1.18117 -0.116575 -2.95173e-19)
(1.13338 -0.0346463 2.39022e-19)
(1.32777 -0.115685 9.41343e-20)
(1.27978 -0.0352841 -2.20568e-20)
(1.47503 -0.11843 4.77638e-19)
(1.42651 -0.0439422 -3.25911e-20)
(1.61978 -0.118134 4.27148e-19)
(1.5745 -0.0548364 -1.9136e-19)
(1.70172 -0.0539625 2.43363e-19)
(1.7615 -0.100282 4.16679e-19)
(0.531352 -0.280107 -3.65763e-19)
(0.533702 -0.352975 -6.59448e-21)
(0.61819 -0.0911899 -2.57924e-19)
(0.582238 -0.0512796 -6.30118e-19)
(0.708007 -0.0318909 4.87667e-19)
(0.669954 0.0321177 3.72888e-19)
(0.813162 0.00445462 1.16977e-19)
(0.776935 0.0771533 2.80034e-20)
(0.935117 0.0305777 -2.5232e-19)
(0.895576 0.110089 -9.49278e-21)
(1.07142 0.0453389 4.42442e-19)
(1.03237 0.129319 -1.48014e-19)
(1.21643 0.0468694 5.44447e-19)
(1.17866 0.132407 8.87286e-19)
(1.36363 0.0367462 -1.37943e-19)
(1.32703 0.11984 -1.36348e-19)
(1.50785 0.0208624 -6.80573e-19)
(1.47033 0.0973048 -3.73416e-19)
(1.64748 0.00766823 -4.19264e-19)
(1.61192 0.0719751 -2.62882e-19)
(1.7333 0.0611687 -4.59118e-19)
(1.78687 0.0127798 4.41731e-19)
(0.536197 -0.144306 -2.09059e-19)
(0.561736 -0.224751 -1.76503e-19)
(0.631501 0.065612 -1.03444e-19)
(0.590595 0.105922 2.25123e-19)
(0.730256 0.138729 -4.92102e-20)
(0.697256 0.205022 1.68623e-19)
(0.845653 0.181728 -9.27253e-20)
(0.815601 0.258868 -2.81085e-19)
(0.978638 0.207857 1.08474e-19)
(0.947908 0.292902 3.72307e-19)
(1.1242 0.215925 1.85542e-19)
(1.09651 0.3051 -1.47764e-19)
(1.27376 0.205361 3.24389e-19)
(1.24903 0.294359 3.38689e-19)
(1.41941 0.180517 -3.26959e-19)
(1.39626 0.264645 -8.13314e-20)
(1.55709 0.149954 3.18818e-20)
(1.53169 0.225846 -3.85518e-20)
(1.68768 0.123962 -2.50168e-19)
(1.66138 0.186791 3.15832e-19)
(1.77634 0.165728 -5.1016e-19)
(1.82014 0.114904 2.04174e-20)
(0.550974 0.00457155 2.18524e-19)
(0.602773 -0.0840649 -1.93845e-19)
(0.657533 0.234354 4.99657e-19)
(0.611131 0.276085 5.43943e-19)
(0.770284 0.321443 -2.8655e-20)
(0.746016 0.391624 -1.52399e-19)
(0.90152 0.368156 1.1429e-19)
(0.883566 0.451514 -1.73313e-20)
(1.04972 0.388335 1.73523e-19)
(1.03456 0.479854 -4.40126e-21)
(1.20525 0.382242 -3.91375e-20)
(1.19508 0.475699 1.07616e-19)
(1.3562 0.35315 -2.22768e-20)
(1.34896 0.442802 -2.44787e-19)
(1.49482 0.3101 1.77327e-19)
(1.48734 0.391465 -1.49108e-21)
(1.62017 0.264567 2.06222e-19)
(1.60767 0.335942 1.80036e-19)
(1.7363 0.227882 1.76075e-19)
(1.71866 0.285692 -1.20102e-19)
(1.82058 0.254506 1.95959e-19)
(1.85061 0.208223 -2.65077e-19)
(0.579899 0.169958 3.52947e-20)
(0.669211 0.0743639 -7.70085e-20)
(0.705994 0.418858 -9.20023e-22)
(0.658202 0.469772 4.87726e-19)
(0.841413 0.516924 -1.52543e-19)
(0.836505 0.59194 -5.57207e-19)
(0.995455 0.559954 -1.372e-19)
(1.00159 0.648684 3.80242e-19)
(1.16076 0.563514 -7.51729e-20)
(1.172 0.657853 -3.28965e-19)
(1.32154 0.533235 -2.21813e-20)
(1.33645 0.624424 2.05955e-19)
(1.46484 0.479836 -2.28663e-19)
(1.4789 0.562312 -3.2619e-19)
(1.58698 0.417759 -6.24964e-20)
(1.59607 0.489253 -1.81466e-19)
(1.69245 0.359731 -1.20405e-19)
(1.69248 0.421057 -5.72509e-21)
(1.78932 0.315269 -1.28262e-19)
(1.77954 0.365373 -1.20761e-19)
(1.86443 0.328419 -1.44582e-19)
(1.88861 0.291614 3.31881e-19)
(0.646383 0.372159 2.43411e-19)
(0.822143 0.267993 -1.43384e-19)
(0.800957 0.619163 1.53969e-19)
(0.779192 0.662282 1.41651e-19)
(0.968955 0.718714 -1.03818e-19)
(0.999378 0.795012 -3.02601e-19)
(1.14987 0.741436 2.55752e-19)
(1.19724 0.825814 3.6197e-19)
(1.32493 0.712214 -1.26151e-19)
(1.3726 0.794563 -1.24521e-19)
(1.47574 0.648731 -1.65663e-20)
(1.51829 0.721621 4.09144e-20)
(1.59556 0.570609 -2.31478e-19)
(1.6289 0.632131 -9.37106e-20)
(1.68951 0.494548 -1.2984e-19)
(1.71157 0.54621 -2.33287e-19)
(1.76815 0.43086 0)
(1.7771 0.475615 -4.81341e-20)
(1.84247 0.384754 -1.24754e-19)
(1.83776 0.423954 1.32125e-19)
(1.90546 0.389825 -4.50437e-20)
(1.91748 0.35188 3.00718e-19)
(0.721954 0.487148 -2.08119e-19)
(1.15875 0.487947 7.76748e-20)
(0.924132 0.805193 -1.20492e-19)
(0.959151 0.919252 -9.47926e-20)
(1.15876 0.877895 1.06039e-19)
(1.34621 0.910944 3.01233e-20)
(1.3634 0.858853 3.50176e-20)
(1.50642 0.886596 1.05657e-19)
(1.52785 0.787845 9.28595e-20)
(1.63249 0.814043 -1.10919e-20)
(1.64614 0.696168 -2.0777e-20)
(1.71959 0.719196 -1.32534e-19)
(1.72761 0.606322 -5.99114e-20)
(1.77746 0.627317 5.66255e-20)
(1.78665 0.530326 -1.46437e-19)
(1.81788 0.550806 -8.41599e-20)
(1.8363 0.473193 6.2716e-20)
(1.85033 0.494159 -1.14756e-19)
(1.88794 0.436176 2.00244e-19)
(1.88452 0.458684 1.64197e-19)
(1.93289 0.437892 6.61977e-20)
(1.95383 0.417813 6.65724e-20)
(1.51643 1.14596 1.16706e-19)
(3.29131 0.36211 0)
(1.72034 1.04024 -4.80612e-19)
(1.4729 0.389511 -1.75905e-18)
(1.80635 0.983058 -6.4785e-20)
(1.55029 0.402428 1.33891e-18)
(1.8617 0.88035 4.77579e-20)
(1.68575 0.448829 6.53242e-21)
(1.88571 0.766566 -1.38944e-20)
(1.77766 0.446978 4.17908e-20)
(1.88633 0.666585 -6.71628e-20)
(1.82753 0.428039 1.55453e-20)
(1.88463 0.585146 1.09253e-20)
(1.86527 0.413187 -5.33204e-20)
(1.88697 0.524385 -1.5667e-20)
(1.88572 0.405861 -2.17538e-20)
(1.89751 0.485566 -2.75864e-20)
(1.89649 0.407349 -3.60717e-20)
(1.92168 0.467527 2.02311e-20)
(1.90954 0.420893 2.98804e-20)
(1.93772 0.450032 -2.75582e-20)
(1.95937 0.465522 -1.00508e-20)
(6.59159 -1.14566 2.88321e-18)
(6.64487 -2.19755 -2.61657e-18)
(6.74245 -1.71317 2.36357e-18)
(5.46781 -0.526179 2.90657e-18)
(6.67934 -1.71179 3.1664e-19)
(6.24253 -0.723012 -7.88533e-19)
(6.30442 -1.54443 3.3496e-19)
(6.48056 -0.858415 5.00172e-19)
(5.77456 -1.3326 -9.15663e-19)
(6.15822 -0.799541 -6.27246e-19)
(5.28014 -1.10266 2.44549e-19)
(5.70324 -0.738383 6.55453e-19)
(4.87034 -0.916479 5.72013e-20)
(5.20132 -0.657195 -5.28374e-19)
(4.53003 -0.769549 -4.01807e-20)
(4.78421 -0.575825 -2.67454e-20)
(4.23971 -0.652773 -4.50931e-20)
(4.44034 -0.500261 -7.32304e-20)
(3.98962 -0.563563 3.4197e-21)
(4.14522 -0.432466 -9.52847e-21)
(3.89382 -0.385122 3.72531e-20)
(3.74808 -0.503742 1.49538e-20)
(3.95711 -0.769595 1.0417e-18)
(3.19041 -2.52745 0)
(5.10814 -0.356081 9.81253e-19)
(3.45429 -0.666648 -1.70417e-19)
(5.79541 -0.295479 -3.87679e-19)
(4.89201 -0.126729 -2.24959e-18)
(6.10566 -0.358819 0)
(5.69208 0.0113587 -1.05828e-18)
(6.0208 -0.41078 3.91634e-19)
(5.93423 0.0817107 5.42675e-19)
(5.64256 -0.422643 3.0406e-19)
(5.83451 0.0558616 2.43885e-18)
(5.15865 -0.4001 -5.55702e-19)
(5.44134 -0.00489293 -1.99455e-18)
(4.73485 -0.359342 -4.50509e-20)
(4.97663 -0.066645 6.76336e-19)
(4.38158 -0.317412 -1.09022e-19)
(4.5746 -0.0957447 2.75994e-19)
(4.08102 -0.28318 2.32628e-20)
(4.23367 -0.103388 -6.17647e-21)
(3.94801 -0.110091 1.16008e-19)
(3.79043 -0.272531 6.52187e-20)
(2.51064 -1.90608 -7.98894e-19)
(1.34772 -4.31893 0)
(3.54885 -0.58208 -2.49866e-18)
(2.41175 -1.93323 -8.74777e-19)
(4.53795 0.0968306 -2.44481e-18)
(3.5804 -0.572078 -1.65527e-18)
(5.27171 0.361172 -2.37233e-19)
(4.55903 0.174953 -2.49517e-18)
(5.63424 0.421766 2.33446e-18)
(5.20587 0.585633 1.63481e-18)
(5.60939 0.35676 1.17478e-18)
(5.49227 0.713447 5.91834e-19)
(5.28015 0.241111 -1.19249e-18)
(5.38085 0.653443 -1.258e-18)
(4.85085 0.140431 1.07747e-18)
(5.01805 0.501971 -3.76853e-20)
(4.4665 0.0798563 4.72882e-19)
(4.6144 0.362458 4.02694e-19)
(4.13522 0.0479513 6.03281e-20)
(4.26317 0.269095 -2.4982e-19)
(3.96641 0.195771 -1.13264e-19)
(3.83195 0.0157941 -8.68416e-20)
(1.55427 -4.40339 0)
(0.837616 -6.008 -5.03243e-19)
(2.53291 -1.90724 0)
(1.77646 -3.43991 3.81349e-19)
(3.51327 -0.435275 -1.31976e-18)
(2.69538 -1.50021 0)
(4.3626 0.416686 -4.84381e-19)
(3.62661 -0.184327 -4.47004e-18)
(4.96485 0.851314 6.85645e-20)
(4.4075 0.65866 1.13804e-18)
(5.22996 0.964714 -1.45404e-18)
(4.92076 1.0869 -2.53679e-22)
(5.14316 0.863879 -5.8016e-19)
(5.06132 1.17639 0)
(4.82335 0.679942 -1.09113e-18)
(4.87746 1.03976 -6.51449e-19)
(4.45477 0.515704 -5.9487e-19)
(4.54151 0.83126 3.99757e-19)
(4.12776 0.399264 -4.36074e-19)
(4.20347 0.656336 8.76027e-20)
(3.91424 0.518161 4.35715e-19)
(3.8083 0.280439 5.81826e-19)
(1.14282 -5.49285 -2.62058e-19)
(0.714539 -6.691 7.92751e-19)
(1.87639 -3.17935 4.20459e-19)
(1.31712 -4.72811 7.2611e-19)
(2.74644 -1.30063 -2.66185e-18)
(2.06092 -2.54745 -2.53072e-19)
(3.58481 0.0459164 -3.19878e-18)
(2.90916 -0.810835 -2.15448e-18)
(4.27197 0.897341 1.14373e-18)
(3.69906 0.434105 2.70187e-18)
(4.70187 1.30213 1.37751e-18)
(4.30572 1.19757 1.23781e-18)
(4.81011 1.34626 0)
(4.6092 1.51477 0)
(4.64256 1.17681 5.16047e-19)
(4.58882 1.47976 2.08519e-18)
(4.34133 0.952232 1.08082e-18)
(4.35861 1.26524 -9.89936e-20)
(4.03318 0.759651 1.08508e-18)
(4.06414 1.033 7.37625e-20)
(3.78485 0.840287 3.71809e-19)
(3.72922 0.563587 -4.86352e-19)
(0.963162 -6.17235 1.74452e-18)
(0.756465 -6.90849 5.2897e-19)
(1.40872 -4.35868 1.55814e-19)
(1.08283 -5.64845 3.47438e-19)
(2.14493 -2.24033 3.89351e-19)
(1.57905 -3.58548 -2.54237e-19)
(2.93376 -0.524472 3.12794e-18)
(2.32543 -1.57596 4.06238e-19)
(3.63419 0.694376 2.84327e-18)
(3.08221 0.0197558 7.83481e-19)
(4.1414 1.40793 0)
(3.7132 1.10995 0)
(4.37713 1.66003 1.84795e-18)
(4.10605 1.68312 0)
(4.34106 1.57887 1.69819e-18)
(4.20767 1.8021 4.55396e-19)
(4.13185 1.34818 -1.08217e-18)
(4.08024 1.63428 -1.0566e-18)
(3.86973 1.10419 -7.58942e-19)
(3.8496 1.37498 -1.61511e-18)
(3.59632 1.13431 1.2096e-21)
(3.58681 0.827813 -1.78539e-19)
(0.963445 -6.53082 -8.70717e-19)
(0.801625 -7.08248 9.75016e-19)
(1.15167 -5.11389 0)
(1.01904 -6.14021 -5.54864e-19)
(1.70677 -3.13774 -3.09169e-19)
(1.25965 -4.51549 9.0932e-19)
(2.39609 -1.19295 -1.94751e-18)
(1.86406 -2.39199 -3.57561e-19)
(3.06193 0.338521 -1.93695e-18)
(2.54843 -0.513618 -7.60875e-19)
(3.59075 1.34622 0)
(3.15919 0.878191 -3.70678e-19)
(3.89941 1.82595 -1.42897e-18)
(3.58828 1.71062 1.147e-18)
(3.96214 1.8755 -2.06755e-18)
(3.77034 2.00988 -2.56032e-18)
(3.83891 1.68045 -1.43652e-18)
(3.73005 1.92624 3.65275e-19)
(3.63158 1.41299 -1.10426e-18)
(3.56637 1.67273 -8.51457e-19)
(3.37201 1.38122 -1.98586e-19)
(3.40381 1.11295 1.22243e-18)
(0.958437 -6.77917 1.51524e-18)
(0.822333 -7.23439 4.92327e-19)
(1.03902 -5.70704 2.04937e-19)
(1.01703 -6.44303 -4.70651e-20)
(1.39133 -3.99346 1.00077e-18)
(1.09015 -5.21152 -9.69141e-20)
(1.9557 -1.90948 8.64625e-19)
(1.50947 -3.18109 1.52714e-19)
(2.55518 -0.113409 7.51643e-19)
(2.08945 -1.10984 9.83219e-19)
(3.06512 1.1663 5.82772e-19)
(2.64775 0.547751 4.88298e-19)
(3.40361 1.87273 3.76278e-19)
(3.07253 1.62662 7.99475e-20)
(3.53316 2.0722 -4.32634e-19)
(3.29815 2.11266 -5.96374e-20)
(3.48472 1.94199 1.1108e-18)
(3.32634 2.13437 4.87018e-19)
(3.33409 1.67507 -4.12609e-21)
(3.22706 1.91422 1.26958e-18)
(3.10482 1.61515 -7.42933e-19)
(3.13215 1.36302 -3.26465e-19)
(0.954852 -6.98602 -1.03606e-18)
(0.825558 -7.39717 -1.18651e-18)
(1.00473 -6.09089 -3.75419e-19)
(1.01016 -6.68923 2.76784e-20)
(1.1843 -4.62506 -1.01886e-18)
(0.999917 -5.66273 -6.67741e-19)
(1.59989 -2.60353 1.81265e-19)
(1.24399 -3.87488 1.64837e-19)
(2.10516 -0.622326 7.6498e-19)
(1.69585 -1.72667 0)
(2.56582 0.898745 -1.62706e-20)
(2.17526 0.149459 8.78928e-19)
(2.90092 1.82026 -3.80487e-19)
(2.56491 1.45294 -1.08164e-18)
(3.06984 2.1742 7.76524e-19)
(2.80354 2.11943 1.04475e-18)
(3.08436 2.12522 5.82789e-19)
(2.88173 2.25415 -3.30171e-19)
(3.00158 1.87763 7.86847e-19)
(2.84141 2.07814 4.62316e-19)
(2.77868 1.7777 8.28801e-21)
(2.87595 1.54326 -1.62706e-19)
(0.938401 -7.17305 -2.72729e-19)
(0.819995 -7.5546 3.10528e-19)
(0.965261 -6.37205 -1.75255e-19)
(0.990821 -6.89598 -4.98897e-19)
(1.04816 -5.09868 4.34402e-19)
(0.937115 -5.98149 4.42069e-19)
(1.31952 -3.22148 0)
(1.05202 -4.44924 0)
(1.706 -1.15139 1.88186e-20)
(1.3618 -2.32408 0)
(2.09119 0.567236 7.53898e-21)
(1.73686 -0.292203 1.89491e-19)
(2.39615 1.68313 1.14591e-19)
(2.0666 1.20541 -1.42185e-19)
(2.58149 2.18557 4.96746e-20)
(2.29379 2.03686 2.26498e-19)
(2.64543 2.22429 -5.44945e-19)
(2.40564 2.28403 -1.40543e-19)
(2.62144 2.01058 -2.69812e-19)
(2.42086 2.16414 -4.73099e-19)
(2.41752 1.88275 1.86083e-19)
(2.55285 1.7135 7.70877e-19)
(0.913303 -7.33319 1.63179e-19)
(0.799333 -7.66533 1.2847e-18)
(0.923584 -6.60695 4.21123e-20)
(0.95237 -7.08472 1.93326e-20)
(0.952174 -5.49048 5.16214e-20)
(0.880223 -6.24012 -7.14704e-19)
(1.09014 -3.77641 0)
(0.907608 -4.90327 0)
(1.34765 -1.6833 1.51112e-19)
(1.07326 -2.88567 0)
(1.63713 0.183182 6.11946e-20)
(1.32715 -0.76435 1.69196e-19)
(1.89059 1.4672 -7.03031e-20)
(1.57801 0.891754 -1.26864e-19)
(2.07449 2.10633 5.71284e-20)
(1.77517 1.86693 -1.11818e-19)
(2.17787 2.23419 -3.15457e-20)
(1.90763 2.21965 2.87933e-19)
(2.21456 2.06539 -9.34256e-20)
(1.976 2.16101 0)
(2.02448 1.91482 -1.37718e-19)
(2.20564 1.79202 1.79713e-18)
(0.887525 -7.47509 1.34756e-18)
(0.763172 -7.78091 1.40832e-18)
(0.878099 -6.80893 -6.91422e-19)
(0.899157 -7.2463 8.90927e-19)
(0.864476 -5.79046 -8.41922e-19)
(0.815962 -6.45088 -2.15896e-18)
(0.895561 -4.22647 0)
(0.781237 -5.24933 1.14226e-18)
(1.02396 -2.19255 0)
(0.818932 -3.38387 -4.56361e-19)
(1.20383 -0.236341 0)
(0.943764 -1.24488 0)
(1.38897 1.18107 -1.70582e-19)
(1.10135 0.523435 0)
(1.55765 1.93719 9.07953e-20)
(1.25527 1.61182 -8.22089e-19)
(1.69244 2.14959 3.51689e-19)
(1.39895 2.05664 2.99278e-19)
(1.78839 2.03266 -3.15653e-20)
(1.5181 2.06135 -3.50012e-19)
(1.63222 1.85047 1.79115e-21)
(1.85621 1.79842 1.67096e-18)
(0.847581 -7.59552 1.07955e-18)
(0.733774 -7.87441 -1.05319e-21)
(0.811007 -6.97571 -3.29788e-19)
(0.838352 -7.3694 8.74058e-19)
(0.764242 -6.0325 -5.30081e-19)
(0.736092 -6.63213 -1.72737e-18)
(0.71536 -4.60014 8.62059e-19)
(0.645247 -5.52478 1.68638e-18)
(0.726138 -2.66401 -5.04976e-19)
(0.584995 -3.8216 -4.57825e-19)
(0.790194 -0.678718 0)
(0.584034 -1.72379 -6.51785e-19)
(0.896122 0.829055 -5.64109e-19)
(0.638505 0.105294 1.40782e-18)
(1.04122 1.67626 -7.18491e-19)
(0.742517 1.27033 5.98028e-19)
(1.20198 1.96543 -3.44432e-19)
(0.893521 1.79072 -2.04344e-20)
(1.35234 1.90442 -3.47062e-19)
(1.05998 1.86227 -5.50656e-19)
(1.25035 1.70434 1.86322e-19)
(1.48013 1.7079 -2.69684e-19)
(0.804529 -7.68174 -2.9197e-19)
(0.706016 -7.92357 -2.6531e-19)
(0.738526 -7.10787 -2.96879e-19)
(0.760196 -7.45601 0)
(0.650486 -6.23719 1.22417e-19)
(0.636202 -6.77586 1.28136e-22)
(0.53988 -4.92442 5.96989e-19)
(0.493041 -5.76274 -5.2231e-22)
(0.448569 -3.1056 -5.84551e-19)
(0.351325 -4.21894 0)
(0.398391 -1.14209 5.71181e-19)
(0.246345 -2.20109 -6.53199e-19)
(0.418321 0.410294 2.66778e-18)
(0.193434 -0.360157 5.05659e-19)
(0.537742 1.31943 1.37395e-18)
(0.246892 0.837663 5.81324e-20)
(0.722521 1.67643 -1.77839e-19)
(0.40781 1.41735 3.20509e-19)
(0.930248 1.6789 -7.91951e-20)
(0.620553 1.55504 3.20118e-19)
(0.874862 1.46437 1.49532e-19)
(1.1206 1.54506 8.69185e-20)
(0.744057 -7.73369 0)
(0.680083 -7.94241 -5.09323e-19)
(0.647887 -7.20028 2.98753e-19)
(0.663931 -7.50071 7.51207e-19)
(0.514717 -6.40319 -1.22619e-19)
(0.517651 -6.86535 2.18941e-18)
(0.343066 -5.21249 -6.00419e-19)
(0.325002 -5.94859 -5.2942e-19)
(0.174116 -3.52544 0)
(0.101522 -4.59834 -8.19149e-19)
(0.024429 -1.62787 -8.34938e-19)
(-0.0796837 -2.68123 0)
(-0.0211765 -0.0727909 -2.08418e-18)
(-0.217862 -0.887271 -1.33635e-19)
(0.0621955 0.866736 -1.01791e-18)
(-0.217163 0.326587 -1.71158e-18)
(0.271086 1.27915 8.00878e-19)
(-0.0415258 0.934551 1.85172e-18)
(0.53498 1.35185 5.79516e-19)
(0.219644 1.13719 -7.03847e-19)
(0.538084 1.12992 0)
(0.789348 1.28263 9.17362e-19)
(0.672965 -7.74541 1.16029e-19)
(0.656197 -7.92097 -3.596e-20)
(0.542733 -7.23523 2.49201e-18)
(0.555098 -7.49964 -2.27526e-18)
(0.36469 -6.50446 2.07791e-18)
(0.383086 -6.90013 2.97679e-18)
(0.138369 -5.4728 -6.64749e-19)
(0.142269 -6.07113 1.40416e-20)
(-0.122624 -3.95562 -9.04565e-19)
(-0.153132 -4.91522 -1.53859e-18)
(-0.338795 -2.13457 7.16206e-19)
(-0.402691 -3.21232 0)
(-0.455991 -0.630415 2.72238e-19)
(-0.596204 -1.45642 7.74414e-20)
(-0.373165 0.31612 8.69235e-19)
(-0.620013 -0.288434 1.78399e-20)
(-0.1325 0.771037 6.16098e-19)
(-0.432945 0.337943 8.94833e-19)
(0.187076 0.915959 -1.32611e-18)
(-0.128262 0.605197 -1.19636e-18)
(0.274766 0.679989 2.17325e-19)
(0.516515 0.975871 0)
(0.589453 -7.71106 -2.17682e-18)
(0.625298 -7.84017 4.61179e-19)
(0.421682 -7.22491 -2.33466e-18)
(0.429065 -7.44524 -3.03389e-18)
(0.199918 -6.55069 1.23847e-18)
(0.225171 -6.88837 1.04789e-18)
(-0.0809607 -5.62937 -6.45102e-19)
(-0.061153 -6.14631 0)
(-0.412612 -4.35611 -7.96105e-19)
(-0.401486 -5.14964 4.82618e-20)
(-0.681098 -2.73061 -6.46835e-19)
(-0.712075 -3.76927 0)
(-0.827841 -1.25668 -1.4433e-19)
(-0.928559 -2.12976 -1.06611e-19)
(-0.746569 -0.341984 5.86403e-20)
(-0.95607 -0.995461 5.37919e-19)
(-0.470511 0.149768 -6.7093e-19)
(-0.745064 -0.371064 -2.35778e-19)
(-0.104279 0.371225 1.93673e-19)
(-0.406767 -0.0362007 3.95513e-19)
(0.0593886 0.163868 -2.9544e-19)
(0.265429 0.46066 -5.83784e-19)
(0.482832 -7.61593 -6.44851e-20)
(0.575019 -7.68218 -8.97022e-19)
(0.274142 -7.15972 -1.04378e-19)
(0.277737 -7.32363 -9.60913e-20)
(0.00612386 -6.55299 -7.0901e-20)
(0.0311189 -6.82246 -1.68712e-18)
(-0.320891 -5.75428 6.62364e-19)
(-0.300767 -6.18579 8.71856e-19)
(-0.682501 -4.70562 8.18726e-19)
(-0.666269 -5.36469 1.03738e-19)
(-1.00055 -3.35865 5.50385e-19)
(-0.994812 -4.29147 0)
(-1.13195 -2.00784 6.84072e-19)
(-1.20659 -2.9321 -1.10412e-18)
(-1.03445 -1.10498 3.29147e-19)
(-1.20513 -1.81718 7.61133e-19)
(-0.721202 -0.580808 8.14363e-19)
(-0.960828 -1.19077 3.66684e-19)
(-0.323171 -0.268662 -1.70157e-19)
(-0.596765 -0.781163 1.34094e-19)
(-0.0864644 -0.441965 -4.69005e-19)