/*--------------------------------*- C++ -*----------------------------------*\
| =========                 |                                                 |
| \\      /  F ield         | OpenFOAM: The Open Source CFD Toolbox           |
|  \\    /   O peration     | Version:  3.0.1                                 |
|   \\  /    A nd           | Web:      www.OpenFOAM.org                      |
|    \\/     M anipulation  |                                                 |
\*---------------------------------------------------------------------------*/
FoamFile
{
    version     2.0;
    format      ascii;
    class       surfaceVectorField;
    location    "0.355842";
    object      Uf;
}
// * * * * * * * * * * * * * * * * * * * * * * * * * * * * * * * * * * * * * //

dimensions      [0 1 -1 0 0 0 0];

internalField   nonuniform List<vector> 
32369
(
(-0.178906 4.34818 2.31988e-18)
(0.827632 5.93666 3.58648e-18)
(-1.48347 3.02904 4.64279e-20)
(0.137304 3.38229 3.47724e-19)
(1.50137 3.79048 2.55804e-18)
(-0.828796 2.43533 2.38894e-18)
(0.654739 2.65732 -2.13743e-18)
(1.35895 3.4668 -1.73838e-18)
(0.0106418 2.03426 -1.84939e-18)
(1.08789 2.09795 1.06376e-19)
(1.51935 2.68344 3.69732e-19)
(0.643149 1.65069 9.24843e-20)
(1.45813 1.71782 1.20222e-19)
(1.66479 2.15988 1.38967e-19)
(1.12216 1.42381 4.40289e-19)
(1.75313 1.45919 7.22602e-20)
(1.85921 1.77196 -9.86718e-19)
(1.49254 1.26957 -7.78433e-20)
(1.98996 1.27797 1.32786e-19)
(2.04819 1.50425 5.50954e-19)
(1.776 1.15395 -2.25261e-19)
(2.18194 1.14683 -1.08361e-19)
(2.22095 1.31047 4.63311e-20)
(2.00057 1.0617 1.9173e-21)
(2.34178 1.0505 -7.93677e-20)
(2.37277 1.17024 -2.78566e-19)
(2.18353 0.988165 -1.80032e-19)
(2.47871 0.978779 2.05389e-19)
(2.5046 1.06834 1.34038e-19)
(2.33442 0.930311 1.54885e-19)
(2.60808 1.00074 -1.28567e-19)
(2.45026 0.883249 4.64888e-20)
(2.60465 0.921797 3.93078e-20)
(2.245 3.6384 2.73275e-18)
(1.93079 4.78861 5.73943e-18)
(2.00555 3.69725 3.34244e-19)
(3.29555 2.62107 -2.39085e-18)
(1.9914 3.28991 3.65882e-19)
(2.74133 3.68391 0)
(1.9264 2.77519 -8.12034e-20)
(2.65578 2.96808 3.88615e-19)
(1.99638 2.27213 -9.72737e-19)
(2.46267 2.5926 2.0332e-19)
(2.11379 1.86956 -4.4384e-19)
(2.40701 2.137 -1.0176e-18)
(2.25399 1.57203 5.00553e-19)
(2.42617 1.78908 3.50328e-19)
(2.39118 1.35673 -8.79006e-20)
(2.49748 1.52003 1.20014e-19)
(2.51554 1.20229 -1.10333e-19)
(2.58597 1.3211 -3.69204e-20)
(2.62327 1.09117 -1.36441e-19)
(2.67599 1.17542 0)
(2.75118 1.07551 -1.25361e-19)
(2.71009 1.0054 -2.00679e-19)
(3.17268 2.44217 -1.34411e-18)
(2.24705 3.28195 4.2482e-18)
(3.4281 2.84831 -3.36603e-18)
(4.04223 1.27584 -5.1623e-18)
(3.25232 2.88091 0)
(3.60205 3.0424 0)
(2.9454 2.7428 1.44243e-19)
(3.57156 2.44649 0)
(2.75465 2.42425 2.40683e-19)
(3.24709 2.50197 1.58604e-19)
(2.64443 2.07318 -2.09663e-19)
(3.03539 2.17268 2.26815e-19)
(2.62789 1.75842 1.58104e-19)
(2.89068 1.89094 -3.41639e-19)
(2.66345 1.50621 7.59649e-20)
(2.83704 1.62429 -9.50765e-20)
(2.7256 1.31352 4.78827e-20)
(2.84033 1.41017 1.32911e-19)
(2.79705 1.17065 2.40392e-20)
(2.87265 1.2448 0)
(2.91177 1.13051 8.17374e-20)
(2.86829 1.06169 -2.91902e-20)
(3.26679 1.49811 -1.62617e-18)
(2.1458 2.17599 2.16239e-18)
(4.00414 1.88464 -2.36823e-18)
(4.06649 0.415682 -1.35294e-18)
(3.95181 2.14332 0)
(3.91799 2.22361 8.88889e-19)
(3.71005 2.25215 0)
(4.06641 1.66504 4.43169e-19)
(3.4489 2.16732 3.03033e-19)
(3.78305 2.08807 -7.53657e-19)
(3.20078 1.9908 3.14923e-19)
(3.54577 1.89467 -6.78449e-19)
(3.05214 1.7635 -3.7374e-19)
(3.32661 1.77582 2.1262e-19)
(2.97862 1.54634 -1.5421e-19)
(3.18065 1.58288 -1.00544e-19)
(2.96334 1.35848 9.95714e-20)
(3.10687 1.40868 8.85963e-20)
(2.97844 1.20802 7.26651e-21)
(3.07921 1.25356 -1.63361e-19)
(3.07279 1.13888 1.27845e-19)
(3.00211 1.08969 -1.76562e-20)
(2.96636 0.857858 1.60244e-18)
(1.83294 1.40272 1.13923e-18)
(4.00239 1.14448 1.46243e-18)
(3.78447 -0.03734 1.11598e-18)
(4.15162 1.44178 1.36468e-18)
(3.912 1.55684 5.88875e-19)
(4.0906 1.63721 1.27833e-19)
(4.20573 0.978297 1.04604e-18)
(3.88393 1.7135 -1.72367e-18)
(4.02968 1.58997 -7.40957e-19)
(3.62459 1.69793 -8.49805e-19)
(3.84829 1.46724 -6.27237e-19)
(3.42398 1.59733 5.12103e-19)
(3.63657 1.51302 -5.07554e-19)
(3.28162 1.45708 0)
(3.46504 1.41858 3.2854e-19)
(3.20009 1.31873 -1.43638e-19)
(3.33959 1.31079 0)
(3.16413 1.18998 -9.83176e-20)
(3.27118 1.19741 2.15199e-20)
(3.23044 1.10681 2.66748e-19)
(3.15116 1.07515 -1.07516e-19)
(2.53181 0.39274 6.61758e-19)
(1.39283 0.829441 -4.3978e-19)
(3.7327 0.606451 4.96613e-19)
(3.37118 -0.316412 2.21263e-21)
(4.05685 0.889682 3.90291e-19)
(3.72986 1.04413 -9.12273e-19)
(4.16605 1.08891 5.75695e-19)
(4.13467 0.471484 5.18555e-19)
(4.05177 1.24094 3.41088e-19)
(4.06334 1.14622 6.64225e-19)
(3.85624 1.32376 -4.30497e-19)
(3.95968 1.03349 7.79167e-19)
(3.67378 1.32819 -7.41209e-19)
(3.79819 1.20236 -7.21061e-19)
(3.5105 1.28323 3.62521e-19)
(3.64187 1.1773 6.52804e-19)
(3.39834 1.20394 1.60669e-19)
(3.51305 1.14943 0)
(3.32807 1.11879 3.32615e-19)
(3.42202 1.08604 3.08917e-20)
(3.35925 1.03014 2.477e-19)
(3.28041 1.03347 -1.25973e-19)
(2.04363 0.0720822 -1.12191e-18)
(0.878491 0.423206 -1.13821e-18)
(3.35804 0.219321 -1.19684e-18)
(2.89298 -0.487693 -1.04684e-19)
(3.82591 0.472111 -8.19283e-19)
(3.44965 0.642623 -1.03432e-18)
(4.06248 0.654869 5.91957e-19)
(3.94528 0.111529 0)
(4.03344 0.835154 1.08678e-18)
(3.96634 0.787794 2.25208e-19)
(3.92192 0.961842 7.08497e-19)
(3.93714 0.661141 5.86394e-19)
(3.78848 1.03367 5.24326e-19)
(3.83645 0.907967 -1.96786e-19)
(3.64651 1.05867 3.62712e-19)
(3.71696 0.920512 -3.43528e-19)
(3.53439 1.0435 -1.58687e-19)
(3.60821 0.957152 0)
(3.45293 1.00306 -1.10004e-19)
(3.52255 0.942438 -1.78036e-19)
(3.4577 0.92494 9.97469e-20)
(3.3919 0.947502 -3.21946e-19)
(1.5385 -0.111727 -2.23987e-19)
(0.370579 0.184416 4.17429e-19)
(2.94786 -0.0370508 1.97701e-19)
(2.41498 -0.559722 3.7868e-19)
(3.53789 0.171271 -3.22022e-19)
(3.12142 0.339807 -5.8799e-20)
(3.86759 0.329651 -3.14004e-19)
(3.69479 -0.131942 -1.8221e-19)
(3.91 0.514745 -2.18187e-19)
(3.79613 0.504569 -6.56182e-19)
(3.87552 0.653233 -1.10428e-19)
(3.83195 0.368503 3.58406e-19)
(3.79486 0.76257 -1.02625e-18)
(3.78697 0.655413 -1.22084e-19)
(3.69235 0.831808 -7.17185e-19)
(3.71078 0.683106 -2.93868e-19)
(3.60279 0.86354 0)
(3.63429 0.767005 1.95631e-19)
(3.52889 0.867567 0)
(3.56634 0.787368 -1.09091e-19)
(3.51177 0.802846 8.09855e-20)
(3.46493 0.849931 0)
(1.05043 -0.215161 1.02734e-18)
(-0.0975725 0.0625006 1.54091e-18)
(2.52985 -0.195772 2.10404e-19)
(1.93264 -0.572571 -2.74547e-21)
(3.22424 -0.0367187 5.20856e-20)
(2.77034 0.117797 -5.56196e-19)
(3.62956 0.0959515 -4.53084e-19)
(3.4138 -0.283538 1.20363e-19)
(3.73305 0.272211 -1.59426e-19)
(3.58778 0.281542 -4.93128e-19)
(3.76206 0.407899 4.15413e-19)
(3.67868 0.154994 1.60962e-19)
(3.72807 0.534662 5.69498e-19)
(3.68163 0.448048 3.07633e-19)
(3.66885 0.627248 5.2952e-19)
(3.64754 0.481931 2.80947e-19)
(3.61009 0.690235 1.20062e-19)
(3.60628 0.595415 3.03983e-20)
(3.55615 0.725603 -5.42006e-20)
(3.56333 0.63857 -5.18741e-20)
(3.52632 0.680678 1.15426e-19)
(3.50948 0.738796 6.07913e-20)
(0.562635 -0.265453 6.25794e-19)
(-0.601893 0.00753439 2.60645e-20)
(2.08989 -0.293982 -6.97871e-19)
(1.42478 -0.548537 4.23157e-19)
(2.88581 -0.178019 -5.38091e-19)
(2.38318 -0.0398874 -1.44391e-18)
(3.36578 -0.0660922 1.44462e-19)
(3.1056 -0.365665 5.80893e-19)
(3.52884 0.0939091 -1.80855e-19)
(3.35737 0.110009 -2.12579e-19)
(3.60995 0.222125 4.67443e-20)
(3.49847 0.00939865 2.2494e-19)
(3.61625 0.352662 1.05635e-20)
(3.54375 0.28274 -1.44896e-19)
(3.59817 0.454807 -1.74983e-19)
(3.54768 0.322525 -6.94309e-20)
(3.57115 0.536164 -1.12801e-19)
(3.53947 0.449004 -1.95287e-19)
(3.5428 0.592064 9.40466e-20)
(3.52388 0.506408 4.7916e-20)
(3.51268 0.566425 -1.82164e-20)
(3.51874 0.622882 2.84069e-20)
(0.049298 -0.250998 -2.49528e-19)
(-1.12323 0.0287961 -1.04204e-18)
(1.6233 -0.325243 -9.7675e-20)
(0.895494 -0.48062 6.96616e-19)
(2.52169 -0.25867 -4.26007e-19)
(1.97442 -0.130862 -6.53823e-19)
(3.08213 -0.169613 3.06093e-19)
(2.77904 -0.392602 6.44473e-19)
(3.30961 -0.0308547 2.01225e-19)
(3.11328 -0.0116856 -3.07282e-19)
(3.43723 0.0879709 1.26628e-19)
(3.30426 -0.082915 4.69906e-19)
(3.47967 0.21365 -2.44608e-19)
(3.38822 0.156955 -5.15205e-19)
(3.49715 0.317399 -7.27798e-20)
(3.42578 0.202649 1.18006e-19)
(3.49929 0.407305 -5.37185e-20)
(3.44651 0.329368 9.49939e-20)
(3.49752 0.47694 -5.07479e-20)
(3.45579 0.395432 5.86179e-20)
(3.46581 0.464022 -5.30065e-20)
(3.50097 0.528693 7.55603e-19)
(-0.459813 -0.175244 -2.49329e-19)
(-1.5835 0.105335 -8.24529e-20)
(1.15355 -0.299673 2.96255e-19)
(0.391602 -0.377947 4.7895e-19)
(2.14806 -0.283566 3.30797e-19)
(1.5638 -0.16316 0)
(2.78929 -0.221725 1.99629e-19)
(2.44706 -0.379106 6.92363e-19)
(3.08414 -0.108681 -1.21374e-19)
(2.864 -0.0891011 -4.31539e-19)
(3.25569 -0.0024375 2.77942e-20)
(3.10566 -0.134928 5.63546e-20)
(3.33143 0.112415 -1.921e-19)
(3.22567 0.0659786 -5.76331e-19)
(3.37869 0.212367 2.87261e-19)
(3.2925 0.115951 5.22232e-19)
(3.4059 0.303463 2.13565e-19)
(3.33752 0.234652 -1.40549e-19)
(3.42764 0.378614 7.29998e-20)
(3.36904 0.304796 1.26695e-19)
(3.39926 0.376238 0)
(3.45727 0.437182 0)
(-0.934952 -0.0767702 6.10215e-19)
(-2.00766 0.212214 3.85304e-19)
(0.691819 -0.239971 2.2891e-19)
(-0.106087 -0.258201 8.78986e-20)
(1.76899 -0.269601 2.9117e-19)
(1.14291 -0.155791 0)
(2.49054 -0.236535 3.01566e-19)
(2.10401 -0.34063 4.47607e-19)
(2.85569 -0.15084 -3.535e-19)
(2.60778 -0.134445 -1.05582e-20)
(3.07146 -0.0593624 -4.39206e-19)
(2.90434 -0.160135 -6.22187e-19)
(3.1788 0.0415475 9.60325e-20)
(3.06086 0.0017243 1.7319e-19)
(3.2511 0.134236 1.90583e-19)
(3.154 0.0543703 2.34167e-19)
(3.29938 0.221673 -2.44217e-19)
(3.21916 0.160988 -4.72863e-19)
(3.34141 0.297361 7.43709e-20)
(3.26969 0.232181 -9.33022e-20)
(3.31905 0.302119 0)
(3.38864 0.357144 -8.21322e-19)
(-1.39841 0.0403955 -1.17015e-19)
(-2.44242 0.356027 5.48066e-19)
(0.21716 -0.157002 -1.4292e-19)
(-0.616429 -0.119688 -5.39078e-19)
(1.36855 -0.229866 1.10665e-19)
(0.694895 -0.111966 -1.39245e-19)
(2.17426 -0.228126 2.38199e-19)
(1.73521 -0.283585 -1.9306e-22)
(2.61757 -0.170041 -2.62684e-19)
(2.3332 -0.154563 -2.20171e-19)
(2.88277 -0.0943705 -1.42686e-19)
(2.69336 -0.168881 7.48591e-20)
(3.02329 -0.00783937 3.50689e-19)
(2.89134 -0.0433641 6.21035e-20)
(3.11799 0.0762683 -3.35961e-19)
(3.01091 0.0100639 -3.11719e-22)
(3.18409 0.157971 -3.59198e-19)
(3.09376 0.103776 -1.61955e-19)
(3.24293 0.232579 -1.72897e-19)
(3.15944 0.174384 -2.60219e-19)
(3.22072 0.242005 -8.74853e-20)
(3.31401 0.296018 -3.00626e-19)
(-1.85189 0.182885 1.13869e-19)
(-2.82647 0.508277 6.65245e-19)
(-0.260213 -0.0484186 -5.75871e-19)
(-1.10677 0.0253118 -9.15281e-19)
(0.950942 -0.165238 -2.64875e-19)
(0.236701 -0.0411548 7.28398e-21)
(1.83844 -0.200165 -4.37248e-19)
(1.34414 -0.21467 7.19168e-20)
(2.36456 -0.172398 1.38017e-19)
(2.03513 -0.155037 -3.35434e-19)
(2.68512 -0.115024 2.32098e-19)
(2.46534 -0.168455 3.97892e-19)
(2.86256 -0.0428596 -2.84745e-19)
(2.711 -0.0755173 7.87136e-20)
(2.9794 0.032441 1.88754e-19)
(2.85979 -0.0234476 3.13031e-20)
(3.06125 0.107886 -5.47412e-20)
(2.96037 0.0585678 1.97515e-19)
(3.13309 0.179044 -1.81477e-19)
(3.03975 0.127336 2.87646e-19)
(3.11325 0.191705 -2.28537e-19)
(3.21308 0.238593 -3.42374e-20)
(-2.27665 0.330996 -3.26487e-19)
(-3.17021 0.66101 -4.31746e-19)
(-0.735224 0.0722089 -4.86869e-19)
(-1.58344 0.171214 -2.09376e-19)
(0.512789 -0.0845519 3.55516e-19)
(-0.24107 0.047728 1.47785e-19)
(1.4743 -0.158595 2.16251e-19)
(0.917849 -0.138352 5.29836e-19)
(2.08515 -0.163712 -1.03466e-19)
(1.6989 -0.141602 -3.71303e-19)
(2.46804 -0.127334 2.79162e-19)
(2.20545 -0.163779 -2.78598e-19)
(2.6886 -0.0694307 3.87715e-19)
(2.50729 -0.0999804 3.22283e-19)
(2.83065 -0.00244766 2.13088e-20)
(2.6918 -0.0509861 -1.12423e-19)
(2.92886 0.0674247 5.29128e-19)
(2.81384 0.0217356 1.63902e-19)
(3.01243 0.135413 3.07751e-19)
(2.9076 0.0885589 2.18285e-19)
(2.99072 0.151797 -1.43057e-19)
(3.10247 0.195441 -4.20739e-19)
(-2.67777 0.481122 -3.52311e-19)
(-3.49063 0.822868 -5.76218e-19)
(-1.21912 0.201825 3.47622e-19)
(-2.05578 0.32419 1.66593e-19)
(0.0378485 0.00920936 2.9973e-19)
(-0.750991 0.157682 2.09909e-19)
(1.0622 -0.106348 6.73074e-20)
(0.439141 -0.049808 1.74257e-19)
(1.75913 -0.147245 -5.56726e-19)
(1.30366 -0.112419 -4.70657e-19)
(2.21303 -0.134758 -3.05885e-19)
(1.89209 -0.153475 1.54838e-19)
(2.48655 -0.0912192 -1.55405e-19)
(2.26072 -0.117434 -3.33965e-19)
(2.66161 -0.0316378 0)
(2.49179 -0.0737165 3.08634e-20)
(2.78085 0.034038 -1.54663e-19)
(2.64399 -0.00811887 -8.16198e-20)
(2.87754 0.0990902 -1.93184e-19)
(2.75729 0.0566273 -1.13781e-19)
(2.85366 0.117446 -8.44141e-21)
(2.97469 0.154737 0)
(-3.05208 0.633191 -1.39614e-19)
(-3.75964 0.974745 -4.11017e-19)
(-1.70584 0.340411 1.71468e-20)
(-2.50162 0.476255 1.30955e-20)
(-0.475301 0.117546 8.12282e-20)
(-1.28125 0.284468 2.08471e-19)
(0.591863 -0.0392276 -2.57665e-19)
(-0.0961941 0.0550243 -2.37723e-20)
(1.36918 -0.119225 2.10402e-19)
(0.834395 -0.0632521 -9.15972e-20)
(1.8999 -0.134648 1.90085e-19)
(1.50374 -0.131766 3.27989e-19)
(2.23732 -0.106965 -1.71908e-19)
(1.94784 -0.123513 -1.94001e-19)
(2.45729 -0.0547725 -3.86171e-20)
(2.23897 -0.0881837 1.44707e-19)
(2.60714 0.00733017 -4.00636e-20)
(2.4352 -0.0292717 -1.37114e-19)
(2.72324 0.0695471 6.04992e-20)
(2.57873 0.0326544 1.02178e-19)
(2.69566 0.0909297 -6.36301e-20)
(2.82775 0.124022 -1.28942e-19)
(-3.38008 0.778317 -9.96482e-20)
(-3.96767 1.11395 -2.99709e-19)
(-2.18298 0.486265 1.83484e-19)
(-2.90864 0.629917 3.18066e-19)
(-1.02576 0.244733 1.20323e-19)
(-1.82351 0.429591 0)
(0.0505913 0.0495613 1.4837e-19)
(-0.69285 0.181634 2.5233e-19)
(0.893684 -0.0718652 0)
(0.272085 0.0141203 4.90304e-20)
(1.50243 -0.118903 0)
(1.01235 -0.0866355 -1.2016e-19)
(1.91479 -0.10972 1.05267e-19)
(1.53752 -0.106707 0)
(2.1955 -0.0668679 8.22342e-20)
(1.90415 -0.0844992 6.57015e-20)
(2.391 -0.00976205 -3.43099e-20)
(2.16295 -0.0354539 1.38301e-21)
(2.53793 0.0489749 -8.02257e-21)
(2.35262 0.0202548 2.34001e-20)
(2.50102 0.0765599 -6.06964e-20)
(2.66354 0.101947 6.13501e-21)
(-3.64884 0.913576 2.45426e-19)
(-4.11716 1.24022 4.24271e-19)
(-2.63567 0.640407 1.61897e-19)
(-3.27102 0.786242 4.20711e-19)
(-1.60652 0.393579 9.82251e-20)
(-2.36023 0.589011 -2.05168e-19)
(-0.571761 0.16812 1.67332e-19)
(-1.34815 0.334547 1.0887e-19)
(0.307495 0.00743476 -7.34486e-20)
(-0.401669 0.132928 1.08194e-20)
(0.988164 -0.0718446 -1.33066e-19)
(0.384921 0.00445024 -5.68516e-20)
(1.48502 -0.0845473 -4.69686e-20)
(0.99133 -0.0440564 -4.61566e-20)
(1.84467 -0.0564574 -2.74211e-20)
(1.44827 -0.0430808 -3.91546e-20)
(2.10525 -0.0101433 4.74741e-20)
(1.79044 -0.0132991 2.04607e-20)
(2.29881 0.0408449 -1.97954e-20)
(2.04603 0.0269737 2.86759e-20)
(2.24184 0.0740012 5.78905e-22)
(2.45556 0.0862564 0)
(-3.8797 1.05941 5.48595e-19)
(-4.21705 1.37999 8.56661e-19)
(-3.05865 0.804114 2.30766e-19)
(-3.57304 0.922181 2.67324e-19)
(-2.20538 0.562612 -2.24746e-19)
(-2.87315 0.742818 -1.99878e-19)
(-1.28004 0.324431 -4.84931e-20)
(-2.04663 0.513934 -2.27487e-20)
(-0.414043 0.141035 -4.69545e-21)
(-1.19357 0.318658 -1.02987e-19)
(0.320516 0.0360797 1.96647e-20)
(-0.404439 0.180985 6.39168e-20)
(0.90594 -0.00357702 -3.91021e-20)
(0.271249 0.103405 -5.94317e-20)
(1.36106 -0.00224877 3.12318e-20)
(0.825323 0.069826 1.32015e-20)
(1.70736 0.0197578 -6.24304e-21)
(1.26682 0.0632356 -5.09513e-20)
(1.96753 0.0506941 2.09205e-20)
(1.6089 0.0714731 3.34299e-20)
(1.88063 0.098534 2.1913e-20)
(2.1608 0.0938339 -1.61835e-20)
(-4.00838 1.13244 5.84308e-19)
(-4.37228 1.41455 5.10407e-19)
(-3.42788 0.926167 0)
(-3.86939 1.01442 0)
(-2.79775 0.722863 -2.00103e-20)
(-3.3328 0.892206 -3.27261e-21)
(-2.05511 0.522388 -7.12425e-20)
(-2.72927 0.749064 -2.53669e-20)
(-1.27121 0.361824 -5.61817e-20)
(-2.04534 0.621928 -3.06623e-20)
(-0.522394 0.250458 -9.86956e-21)
(-1.32332 0.500628 -2.1823e-20)
(0.137483 0.179736 3.47543e-20)
(-0.627924 0.391627 -1.33682e-20)
(0.689313 0.138852 -2.67855e-20)
(-0.00600508 0.305341 5.19853e-20)
(1.13359 0.121878 1.03542e-20)
(0.520451 0.242327 -8.05266e-20)
(1.47822 0.125236 3.57902e-20)
(0.944437 0.195424 5.35416e-20)
(1.32313 0.210363 4.16058e-20)
(1.77843 0.127699 1.57656e-20)
(-4.37729 1.36917 0)
(-4.16821 1.48282 0)
(-3.81138 1.11619 -2.83768e-21)
(-3.56276 1.09162 -9.24728e-21)
(-3.34892 0.969668 2.13531e-20)
(-3.22083 1.10029 2.54466e-20)
(-2.80529 0.860574 4.91502e-20)
(-2.91844 1.09521 -1.69263e-20)
(-2.16737 0.754591 2.0568e-20)
(-2.52292 1.0573 1.96531e-20)
(-1.48253 0.63586 -2.42257e-21)
(-2.01974 0.966041 9.09165e-20)
(-0.818472 0.511705 6.93903e-20)
(-1.45983 0.836797 -4.66785e-20)
(-0.218495 0.399893 2.80707e-22)
(-0.899469 0.706121 7.74797e-20)
(0.297588 0.311467 -2.28391e-20)
(-0.378282 0.586232 -5.17578e-20)
(0.718346 0.253765 1.7082e-19)
(0.0648182 0.471531 8.8746e-20)
(0.54517 0.399618 -6.57056e-20)
(1.02548 0.268899 -6.11761e-20)
(-3.49785 0.915051 -7.80927e-21)
(-1.27299 0.922513 1.38269e-19)
(-3.04366 0.895171 -3.85083e-21)
(-0.907799 1.28532 -9.39904e-20)
(-2.83859 1.02069 -1.34036e-19)
(-0.773867 1.25894 3.63718e-20)
(-2.66089 1.13655 -9.73678e-21)
(-0.719611 1.16568 5.96792e-20)
(-2.40056 1.18816 8.02287e-20)
(-0.626706 1.12019 -1.81519e-19)
(-2.02899 1.16083 -3.32458e-20)
(-0.480533 1.08421 1.79361e-19)
(-1.58428 1.07267 -5.14133e-20)
(-0.303143 1.02288 -1.13739e-20)
(-1.11058 0.954219 -1.6194e-20)
(-0.111489 0.953771 -4.30658e-20)
(-0.645078 0.820147 2.08112e-20)
(0.0799591 0.871589 9.39711e-20)
(-0.210951 0.670506 1.00053e-20)
(0.246453 0.776595 -3.72156e-20)
(0.468253 0.639963 -6.86908e-20)
(0.128027 0.61737 3.92817e-20)
(-2.56843 0.207054 0)
(-1.50668 -2.10226 -3.99547e-18)
(-1.16061 0.756137 5.05588e-21)
(-0.794918 -0.965691 6.05782e-18)
(-0.0638984 0.997055 8.90794e-20)
(-0.243948 -0.163667 -4.6373e-18)
(0.666144 1.04968 4.07438e-19)
(0.288294 0.40499 8.12335e-20)
(1.15761 1.03995 3.80472e-19)
(0.78744 0.683379 3.063e-19)
(1.50958 1.00039 -3.11169e-19)
(1.21703 0.79595 -6.94256e-20)
(1.77867 0.955109 -3.6788e-19)
(1.5542 0.82299 3.09256e-19)
(1.99167 0.913235 -5.08784e-20)
(1.81566 0.818518 1.27548e-19)
(2.16352 0.876935 1.67867e-20)
(2.01954 0.804645 -8.47534e-20)
(2.30407 0.845609 1.41483e-20)
(2.18045 0.78938 -1.84027e-19)
(2.30145 0.773268 -1.27447e-20)
(2.41933 0.816796 -1.13728e-20)
(-0.338956 -2.2178 9.14404e-19)
(-0.0315822 -3.4208 -2.80665e-18)
(-0.233459 -1.60754 8.99316e-19)
(0.613303 -2.07307 4.83149e-18)
(0.0052979 -0.764507 -4.50958e-18)
(0.400589 -1.64888 -3.49752e-18)
(0.377234 -0.0760654 0)
(0.498438 -0.84781 0)
(0.841964 0.343918 0)
(0.72776 -0.266681 0)
(1.26238 0.570885 4.86468e-19)
(1.04514 0.133055 4.04741e-19)
(1.59156 0.672215 8.15995e-19)
(1.35293 0.383373 9.373e-20)
(1.84018 0.708208 1.90815e-19)
(1.62224 0.519493 -6.6145e-19)
(2.02991 0.715919 -2.23346e-19)
(1.84436 0.589465 3.03947e-19)
(2.18025 0.712958 -2.21077e-19)
(2.01987 0.623407 -1.97009e-19)
(2.15086 0.633625 1.43621e-21)
(2.30796 0.699488 1.09327e-21)
(1.03205 -2.28372 1.36484e-19)
(1.00654 -3.23337 -3.19429e-19)
(0.912882 -2.13974 1.74173e-19)
(1.79543 -1.91119 -4.00171e-20)
(0.751789 -1.6488 2.17093e-19)
(1.27792 -2.10296 1.91483e-19)
(0.72267 -1.0651 0)
(1.13168 -1.47815 0)
(0.867013 -0.518462 3.46558e-19)
(1.0517 -0.960756 -9.35735e-19)
(1.10463 -0.0955262 -6.23464e-20)
(1.13398 -0.476982 1.50995e-18)
(1.37215 0.194152 -1.22104e-18)
(1.30165 -0.110568 -6.8589e-19)
(1.62052 0.374007 -5.84946e-19)
(1.49762 0.139325 -5.40827e-19)
(1.82942 0.48018 4.22639e-19)
(1.68681 0.299475 3.75345e-19)
(1.99798 0.541978 0)
(1.847 0.396722 -4.79726e-19)
(1.96763 0.452199 -1.48349e-19)
(2.13057 0.572541 0)
(1.93763 -1.99266 -2.07156e-18)
(1.68968 -2.68793 -1.28956e-18)
(1.91837 -2.01052 -4.33364e-20)
(2.58577 -1.47515 -3.89893e-20)
(1.61309 -1.76487 0)
(2.03091 -2.01701 0)
(1.35785 -1.40001 -8.19398e-19)
(1.8204 -1.55504 0)
(1.2541 -0.958471 6.61308e-20)
(1.57583 -1.24917 -9.17203e-19)
(1.27791 -0.543943 9.73448e-19)
(1.4679 -0.830728 1.45741e-18)
(1.39288 -0.205266 -1.60434e-20)
(1.47003 -0.466296 -5.31139e-19)
(1.54273 0.0404064 3.01469e-19)
(1.54148 -0.172842 2.69092e-19)
(1.69254 0.204841 -4.21251e-19)
(1.64462 0.0387742 -2.29225e-19)
(1.82541 0.310523 -8.22425e-19)
(1.75006 0.17986 1.08046e-19)
(1.83562 0.260473 -1.72473e-19)
(1.94382 0.376121 4.91021e-19)
(2.46235 -1.6274 -9.49767e-19)
(2.1115 -2.15724 -1.00073e-18)
(2.57745 -1.69271 0)
(3.01605 -1.07931 7.76999e-19)
(2.27262 -1.59916 0)
(2.53596 -1.72003 -3.82286e-20)
(1.96531 -1.40453 0)
(2.3478 -1.35595 2.14261e-19)
(1.73623 -1.11252 3.58199e-19)
(2.05311 -1.24051 0)
(1.60545 -0.779186 6.00295e-20)
(1.85384 -0.940799 4.0199e-19)
(1.57715 -0.464078 -3.35138e-19)
(1.73504 -0.648263 -3.00611e-19)
(1.61503 -0.202316 -2.02152e-19)
(1.69681 -0.372843 6.85796e-20)
(1.68716 -0.00628444 3.1446e-19)
(1.71026 -0.152494 -2.44843e-19)
(1.76677 0.129893 7.52948e-19)
(1.74842 0.00838616 4.75081e-19)
(1.78224 0.109944 -1.12654e-20)
(1.83396 0.219332 1.88526e-19)
(2.73041 -1.26906 8.1705e-19)
(2.34255 -1.68557 -4.98423e-19)
(2.94353 -1.34562 8.25922e-19)
(3.22812 -0.769735 8.54403e-19)
(2.68886 -1.32356 4.65527e-19)
(2.83948 -1.39911 -4.32462e-20)
(2.41055 -1.2329 2.37364e-19)
(2.68616 -1.07403 3.37991e-21)
(2.1564 -1.05535 0)
(2.40839 -1.09557 1.62967e-19)
(1.94553 -0.828835 0)
(2.17949 -0.877061 -1.66915e-20)
(1.81987 -0.579988 6.07771e-20)
(1.99912 -0.681411 1.26916e-20)
(1.76138 -0.346843 -5.11465e-20)
(1.88591 -0.456628 3.63288e-19)
(1.75032 -0.153765 -1.87068e-19)
(1.82364 -0.25915 -1.03189e-19)
(1.75984 -0.00897602 -1.3206e-19)
(1.79534 -0.0996703 -5.45568e-20)
(1.77427 0.011253 0)
(1.75783 0.0986246 -2.10644e-19)
(2.849 -0.945065 1.20875e-19)
(2.44543 -1.27068 -8.63896e-19)
(3.12703 -1.02536 1.85387e-19)
(3.31478 -0.525792 9.33881e-19)
(2.92029 -1.03528 -1.17453e-19)
(3.01252 -1.10856 -5.52093e-19)
(2.68841 -1.00272 -2.09869e-19)
(2.87826 -0.793485 -5.05383e-19)
(2.45322 -0.906423 1.65854e-19)
(2.63719 -0.906881 1.64616e-19)
(2.22259 -0.759112 -8.48443e-20)
(2.42135 -0.731885 1.30524e-19)
(2.04966 -0.5805 1.61411e-19)
(2.21627 -0.620437 -9.99404e-20)
(1.92786 -0.394676 1.08027e-19)
(2.06334 -0.449693 1.65654e-19)
(1.85207 -0.225037 2.63938e-20)
(1.95076 -0.289471 -8.54799e-20)
(1.80444 -0.0853492 7.06333e-20)
(1.87282 -0.146597 6.33398e-20)
(1.81098 -0.0386335 0)
(1.75349 0.0314572 0)
(2.89462 -0.685887 3.24599e-19)
(2.5108 -0.936373 -2.70081e-19)
(3.21197 -0.757842 5.47363e-19)
(3.3446 -0.339677 8.29516e-19)
(3.04265 -0.780068 -8.91758e-19)
(3.10485 -0.860794 -2.68963e-19)
(2.85048 -0.758477 -4.01309e-19)
(3.00226 -0.551421 -2.95247e-19)
(2.64146 -0.718786 1.32818e-19)
(2.7646 -0.711918 2.6897e-19)
(2.42193 -0.628143 1.42363e-19)
(2.58234 -0.560476 1.48101e-19)
(2.23387 -0.507849 -1.25144e-19)
(2.37551 -0.510237 -1.13057e-19)
(2.07975 -0.370334 0)
(2.20749 -0.384866 0)
(1.96383 -0.23323 0)
(2.06763 -0.264077 -4.58042e-20)
(1.87882 -0.108739 0)
(1.96005 -0.146078 4.92063e-20)
(1.87343 -0.0495014 -4.07632e-20)
(1.79836 0.00574068 7.11217e-20)
(2.91711 -0.476923 3.30148e-19)
(2.5423 -0.657969 -1.11001e-19)
(3.25097 -0.527944 2.74357e-19)
(3.37789 -0.183133 5.87704e-19)
(3.10282 -0.571224 3.36938e-19)
(3.1219 -0.634658 -6.06905e-19)
(2.94264 -0.552509 1.95315e-19)
(3.08268 -0.346015 5.72032e-19)
(2.75072 -0.531857 2.41152e-19)
(2.84481 -0.5281 -6.18846e-20)
(2.55301 -0.476643 0)
(2.68272 -0.392308 -1.42201e-19)
(2.36618 -0.39856 0)
(2.48351 -0.380997 1.09603e-19)
(2.20065 -0.301845 -4.07901e-20)
(2.3135 -0.289679 -1.165e-19)
(2.0643 -0.198049 -5.3078e-20)
(2.16174 -0.204435 -4.58589e-20)
(1.95634 -0.097677 4.65781e-20)
(2.03745 -0.112317 4.91939e-20)
(1.93727 -0.0329745 -3.4625e-20)
(1.85107 0.00469271 -2.10124e-20)
(2.92977 -0.296397 1.1254e-19)
(2.53674 -0.440457 -4.05534e-19)
(3.26987 -0.34234 -4.5767e-20)
(3.397 -0.0184821 6.07545e-19)
(3.13151 -0.367322 -3.71388e-19)
(3.14342 -0.440462 -8.69909e-19)
(2.99703 -0.36554 4.80666e-19)
(3.11147 -0.165017 5.76302e-19)
(2.81302 -0.358471 -4.3903e-19)
(2.88966 -0.351186 -3.24741e-20)
(2.6336 -0.325272 -9.25023e-20)
(2.74203 -0.232688 -5.14919e-19)
(2.4535 -0.276332 1.76096e-20)
(2.55151 -0.248072 -3.16949e-21)
(2.28731 -0.211292 -1.29418e-19)
(2.38485 -0.181709 2.80309e-21)
(2.14274 -0.137373 0)
(2.22953 -0.12685 -6.31409e-20)
(2.02374 -0.0615635 2.60589e-20)
(2.09741 -0.0602582 4.7508e-20)
(1.98894 -0.00161421 7.57498e-20)
(1.90563 0.0197112 1.44294e-20)
(2.91594 -0.103288 7.94815e-20)
(2.48618 -0.270308 -6.44308e-20)
(3.27341 -0.15968 1.57058e-20)
(3.36735 0.14681 2.14213e-19)
(3.1386 -0.188831 0)
(3.13843 -0.257206 -3.40254e-19)
(3.02062 -0.191544 2.2481e-19)
(3.11777 -0.00203277 3.99878e-19)
(2.84483 -0.195528 -1.15552e-19)
(2.90503 -0.187336 3.46886e-20)
(2.67886 -0.179216 -5.13796e-19)
(2.76995 -0.0812139 -3.62273e-19)
(2.50575 -0.152147 -2.29318e-20)
(2.58802 -0.118066 7.16741e-20)
(2.34304 -0.112108 7.12613e-20)
(2.42661 -0.070447 1.15277e-19)
(2.19647 -0.0640731 -3.9641e-20)
(2.27186 -0.0418782 -6.33065e-20)
(2.07197 -0.0127278 9.40874e-20)
(2.13656 0.000969282 4.76022e-20)
(2.02501 0.0408325 -2.18788e-20)
(1.94689 0.0451736 3.42217e-19)
(2.8725 0.0493818 9.48733e-20)
(2.4359 -0.129999 -1.36786e-19)
(3.2526 0.0036835 -9.74126e-20)
(3.33406 0.295236 3.71457e-19)
(3.12758 -0.0253693 4.09491e-20)
(3.11528 -0.0967045 -2.91012e-19)
(3.01992 -0.0329972 2.87975e-19)
(3.10394 0.151158 4.0224e-19)
(2.85185 -0.0442889 -2.32566e-19)
(2.89831 -0.0390722 -2.2049e-19)
(2.69681 -0.0405715 1.40458e-19)
(2.77285 0.0618254 -7.67156e-20)
(2.53008 -0.0310085 2.01737e-19)
(2.5984 0.00547938 3.63889e-19)
(2.37213 -0.0116125 0)
(2.44268 0.0391788 -4.2069e-20)
(2.22629 0.0136712 0)
(2.29059 0.0441801 -3.47087e-20)
(2.09925 0.0413194 -6.59252e-20)
(2.15414 0.064682 3.04246e-20)
(2.03973 0.0837928 -4.7878e-20)
(1.96009 0.0744185 2.7411e-19)
(2.82055 0.193159 9.02843e-20)
(2.38078 0.00602867 -3.16872e-19)
(3.21655 0.150066 2.81377e-19)
(3.28302 0.439236 1.88935e-19)
(3.10115 0.123345 2.74277e-20)
(3.08309 0.052086 6.20314e-20)
(3.00136 0.112513 1.66284e-20)
(3.07374 0.291273 -1.16193e-20)
(2.83861 0.095117 -8.07459e-20)
(2.87456 0.0991789 -4.034e-21)
(2.69271 0.0892262 5.05804e-20)
(2.75572 0.193258 -8.53096e-20)
(2.53122 0.0840405 1.5414e-19)
(2.58727 0.12224 1.80316e-19)
(2.37835 0.0859012 -7.771e-20)
(2.43677 0.14315 -4.22146e-20)
(2.23419 0.0905079 -1.26613e-20)
(2.28796 0.127757 2.46764e-20)
(2.10601 0.0961912 5.86918e-20)
(2.15196 0.127375 1.50732e-20)
(2.03259 0.123582 2.79946e-20)
(1.96717 0.0999117 2.13462e-20)
(2.74804 0.340614 -2.36823e-19)
(2.27925 0.137927 -2.50574e-19)
(3.16165 0.292736 -3.73954e-22)
(3.19816 0.57215 7.75702e-21)
(3.06047 0.263655 2.47305e-21)
(3.03587 0.196483 7.93619e-20)
(2.96619 0.246991 -1.31506e-20)
(3.02611 0.415324 -1.1921e-20)
(2.80849 0.224835 0)
(2.83728 0.232727 -3.78263e-21)
(2.66912 0.209477 0)
(2.72115 0.310924 -8.04111e-20)
(2.51218 0.191873 0)
(2.55853 0.233215 0)
(2.36415 0.177986 5.33639e-20)
(2.41215 0.238789 1.54709e-19)
(2.22224 0.163829 5.29409e-20)
(2.26668 0.206722 8.99738e-22)
(2.09331 0.148982 -1.72126e-20)
(2.13207 0.187261 -3.77587e-21)
(2.01094 0.162821 -8.76852e-21)
(1.95036 0.130647 0)
(2.65319 0.467507 0)
(2.18551 0.261564 -5.76939e-20)
(3.08877 0.422148 6.02106e-20)
(3.09973 0.688865 4.46207e-20)
(3.00575 0.393607 7.37862e-20)
(2.97722 0.33336 5.93518e-20)
(2.91652 0.371238 -3.39303e-21)
(2.96342 0.525587 -1.62482e-19)
(2.76401 0.345396 -7.55023e-20)
(2.78712 0.360404 -2.41111e-19)
(2.62894 0.320285 -8.89997e-20)
(2.67063 0.416315 4.45793e-21)
(2.47609 0.291644 1.38315e-19)
(2.51391 0.337325 0)
(2.33235 0.262864 1.23004e-19)
(2.37101 0.325144 1.25956e-20)
(2.19329 0.231889 -5.29631e-20)
(2.22949 0.279127 -5.72716e-20)
(2.06526 0.19927 6.78128e-21)
(2.09798 0.242176 -1.23837e-19)
(1.97747 0.198968 2.38402e-20)
(1.93118 0.161255 -6.57543e-21)
(2.54801 0.585451 -6.20228e-21)
(2.08513 0.382412 -3.47272e-19)
(3.00116 0.541264 4.22966e-20)
(2.98385 0.797115 -1.32391e-19)
(2.93808 0.513803 -1.52172e-19)
(2.90625 0.466758 8.25944e-21)
(2.85369 0.48618 -3.91698e-19)
(2.88745 0.625581 9.06855e-20)
(2.70632 0.456826 -1.86919e-19)
(2.72453 0.481545 -5.63243e-20)
(2.57395 0.421874 9.29016e-20)
(2.60568 0.511094 -1.29386e-19)
(2.42515 0.382519 -1.2391e-19)
(2.45485 0.432919 -3.58867e-20)
(2.28563 0.339319 -1.54004e-19)
(2.31545 0.401543 -7.04521e-20)
(2.15069 0.292884 -1.20989e-19)
(2.17913 0.342952 -6.65853e-20)
(2.0258 0.244535 -1.25203e-19)
(2.05289 0.290081 -1.48062e-19)
(1.93652 0.229144 -1.38151e-20)
(1.9028 0.191541 5.87412e-19)
(2.42866 0.703281 -4.75869e-19)
(1.96292 0.497412 -1.03055e-19)
(2.89587 0.657373 -1.85212e-19)
(2.84118 0.898911 -9.18454e-21)
(2.85593 0.628464 2.42526e-19)
(2.81588 0.597599 -2.06191e-19)
(2.77731 0.594147 4.53623e-19)
(2.79554 0.718265 1.01036e-19)
(2.63545 0.559601 8.35975e-21)
(2.64769 0.595185 4.94656e-19)
(2.50496 0.514142 -2.77658e-19)
(2.52654 0.596412 -6.44897e-20)
(2.36083 0.463354 2.88108e-20)
(2.38217 0.517914 -3.58708e-20)
(2.22627 0.406019 1.67494e-20)
(2.2475 0.467031 2.57969e-19)
(2.09716 0.345047 -9.28278e-20)
(2.11825 0.396347 -1.23392e-19)
(1.97777 0.281324 -6.06322e-20)
(1.99853 0.329161 1.37115e-19)
(1.8883 0.252241 1.51994e-21)
(1.8626 0.212673 6.24993e-20)
(2.28802 0.815105 3.49795e-19)
(1.82604 0.607174 1.24786e-19)
(2.76696 0.769165 -1.87526e-20)
(2.67152 0.994649 1.60917e-19)
(2.7546 0.73798 -3.76306e-19)
(2.70072 0.724689 1.52236e-20)
(2.68449 0.69591 9.20032e-20)
(2.68361 0.805077 1.22455e-19)
(2.54995 0.653402 4.78455e-19)
(2.55302 0.699225 1.03089e-19)
(2.42202 0.596138 1.62153e-19)
(2.43218 0.671836 3.59211e-20)
(2.28433 0.532445 1.68752e-19)
(2.29627 0.589546 -1.76999e-19)
(2.15647 0.46124 1.59881e-19)
(2.16923 0.520046 -1.42328e-19)
(2.03557 0.386354 5.21297e-20)
(2.04938 0.437507 1.11463e-21)
(1.92415 0.310634 1.97711e-19)
(1.93959 0.358369 4.29827e-20)
(1.84111 0.271367 1.02949e-19)
(1.83151 0.240411 2.85502e-20)
(2.12438 0.921219 -6.38181e-20)
(1.67284 0.712644 -5.69659e-20)
(2.60919 0.876327 2.09951e-19)
(2.46964 1.08666 -1.30539e-19)
(2.62768 0.841908 4.98574e-19)