/*--------------------------------*- C++ -*----------------------------------*\
| =========                 |                                                 |
| \\      /  F ield         | OpenFOAM: The Open Source CFD Toolbox           |
|  \\    /   O peration     | Version:  3.0.1                                 |
|   \\  /    A nd           | Web:      www.OpenFOAM.org                      |
|    \\/     M anipulation  |                                                 |
\*---------------------------------------------------------------------------*/
FoamFile
{
    version     2.0;
    format      ascii;
    class       volScalarField;
    location    "0.0924361";
    object      p;
}
// * * * * * * * * * * * * * * * * * * * * * * * * * * * * * * * * * * * * * //

dimensions      [0 2 -2 0 0 0 0];

internalField   nonuniform List<scalar> 
21246
(
-8.31938
-2.4844
-0.280538
0.572188
0.831576
0.841025
0.735381
0.580724
0.401289
0.230551
0.15749
-24.4002
-13.4551
-8.96245
-5.63453
-3.24496
-1.88842
-1.17196
-0.810107
-0.646054
-0.584881
-0.518658
-23.2019
-17.8291
-15.0265
-11.2778
-7.79176
-5.27167
-3.58807
-2.53017
-1.89235
-1.50181
-1.21664
-17.7121
-16.6899
-15.9023
-13.4982
-10.629
-8.01113
-5.87718
-4.30289
-3.22221
-2.49674
-1.97744
-13.5768
-13.7881
-13.8716
-12.8687
-11.2297
-9.28289
-7.3449
-5.68601
-4.39003
-3.43184
-2.6957
-10.9937
-11.392
-11.5714
-11.2456
-10.4826
-9.29481
-7.86176
-6.44156
-5.18922
-4.166
-3.32319
-9.44902
-9.67308
-9.78854
-9.71937
-9.38877
-8.70868
-7.74275
-6.65498
-5.58258
-4.62406
-3.77074
-8.59632
-8.56348
-8.60319
-8.59613
-8.43046
-8.01613
-7.35993
-6.54816
-5.67459
-4.83505
-4.04266
-8.25843
-7.98373
-7.964
-7.90084
-7.74569
-7.43503
-6.94383
-6.31043
-5.59263
-4.86543
-4.14711
-8.03813
-7.70413
-7.62643
-7.47928
-7.29095
-7.00602
-6.58606
-6.04806
-5.43025
-4.78834
-4.13391
-7.77375
-7.42928
-7.30022
-7.1267
-6.93369
-6.66603
-6.28174
-5.79307
-5.23326
-4.64994
-4.06119
-7.54072
-7.19299
-7.01517
-6.81919
-6.61788
-6.36012
-5.99938
-5.53973
-5.01234
-4.46128
-3.90728
-7.34588
-6.9989
-6.79601
-6.57332
-6.35001
-6.0863
-5.7334
-5.28524
-4.77103
-4.23513
-3.70388
-7.16425
-6.81695
-6.60384
-6.36329
-6.11764
-5.84108
-5.48357
-5.0316
-4.514
-3.97956
-3.46637
-6.99179
-6.64072
-6.42012
-6.16414
-5.8931
-5.60034
-5.23099
-4.76754
-4.23679
-3.69235
-3.17693
-6.82125
-6.4686
-6.24252
-5.97658
-5.68584
-5.36668
-4.97798
-4.49257
-3.93928
-3.37886
-2.86441
-6.64843
-6.30017
-6.07151
-5.80079
-5.49684
-5.15377
-4.73647
-4.21275
-3.62751
-3.04481
-2.51759
-6.47546
-6.13397
-5.90724
-5.63686
-5.32353
-4.95684
-4.50072
-3.93686
-3.30815
-2.70514
-2.18739
-6.29857
-5.96799
-5.74945
-5.48809
-5.17088
-4.77874
-4.28039
-3.66453
-2.99498
-2.37725
-1.87939
-6.10643
-5.79509
-5.59567
-5.35358
-5.03863
-4.62218
-4.08013
-3.41543
-2.71148
-2.0904
-1.61108
-5.87007
-5.61841
-5.45883
-5.24428
-4.92941
-4.48821
-3.91357
-3.22148
-2.49694
-1.88595
-1.43273
-5.57373
-5.46569
-5.37888
-5.17438
-4.84183
-4.3812
-3.80746
-3.12089
-2.39588
-1.80683
-1.41662
-5.50849
-5.58913
-5.44772
-5.1834
-4.84462
-4.42741
-3.89344
-3.23344
-2.54149
-1.96486
-1.56145
-6.25222
-5.27538
-5.03046
-4.79431
-4.48927
-4.0821
-3.51451
-2.84722
-2.19813
-1.70659
-1.55814
16.598
10.8916
7.29819
5.14817
3.81056
2.92895
2.28369
1.76419
1.32094
0.961012
0.729091
16.2919
15.1198
12.4125
9.69446
7.34312
5.4867
4.11055
3.08201
2.29042
1.69503
1.32065
11.6175
12.5728
12.2203
10.9036
9.03256
7.11353
5.49628
4.17497
3.11637
2.30526
1.78136
7.48211
9.2756
9.75555
9.64571
8.85584
7.58414
6.12801
4.78489
3.62845
2.71599
2.11926
4.42651
6.28162
7.03765
7.60915
7.59628
7.02211
6.00161
4.9268
3.87343
2.96934
2.33309
2.19725
3.83054
4.52916
5.35765
5.81224
5.83799
5.34334
4.63082
3.78684
2.98464
2.39398
0.583845
1.97093
2.50265
3.36627
3.96478
4.29622
4.25313
3.90406
3.34445
2.73068
2.24827
-0.536427
0.618749
0.951945
1.79438
2.36794
2.81904
3.01954
2.95302
2.66163
2.2575
1.91097
-1.43415
-0.388588
-0.270772
0.581787
1.06551
1.54514
1.85497
1.96576
1.87884
1.65872
1.45054
-2.20411
-1.30647
-1.119
-0.467801
0.00259853
0.477012
0.830728
1.04355
1.09786
1.02286
0.936256
-2.83481
-2.16364
-1.86705
-1.31137
-0.871947
-0.416601
-0.0464283
0.224238
0.37231
0.403601
0.393344
-3.33248
-2.77527
-2.49918
-2.00309
-1.59442
-1.16216
-0.789239
-0.485308
-0.273704
-0.163129
-0.11466
-3.78352
-3.27151
-3.02158
-2.57138
-2.19026
-1.78011
-1.41112
-1.08933
-0.836177
-0.663176
-0.562309
-4.2101
-3.70354
-3.46187
-3.04042
-2.68055
-2.28908
-1.92625
-1.59524
-1.31571
-1.0996
-0.94774
-4.48085
-4.02583
-3.81418
-3.4225
-3.08154
-2.70619
-2.3491
-2.01276
-1.71542
-1.46793
-1.2778
-4.7036
-4.2886
-4.09762
-3.73243
-3.40625
-3.04445
-2.69131
-2.35077
-2.0403
-1.77046
-1.55483
-4.91166
-4.51718
-4.33159
-3.98567
-3.66746
-3.3148
-2.96237
-2.61669
-2.29506
-2.00811
-1.76645
-5.06035
-4.69304
-4.51371
-4.18634
-3.87167
-3.52345
-3.16789
-2.81498
-2.48303
-2.18667
-1.93573
-5.15667
-4.82004
-4.64643
-4.33638
-4.02141
-3.67272
-3.31012
-2.94717
-2.604
-2.29947
-2.04551
-5.22086
-4.91072
-4.73639
-4.43833
-4.11774
-3.76325
-3.39009
-3.01391
-2.65724
-2.34502
-2.09234
-5.2494
-4.96234
-4.78085
-4.48821
-4.15823
-3.79554
-3.41051
-3.01769
-2.64331
-2.32096
-2.06805
-5.22338
-4.95902
-4.75917
-4.46645
-4.13202
-3.7675
-3.37333
-2.95998
-2.56197
-2.22766
-1.97853
-5.21321
-4.90732
-4.6806
-4.40513
-4.09095
-3.73944
-3.33607
-2.89119
-2.45714
-2.10272
-1.86144
-4.661
-4.43864
-4.25159
-4.04828
-3.8051
-3.49502
-3.09456
-2.63658
-2.20098
-1.87271
-1.6844
0.0315093
0.116555
0.154096
0.166764
0.160394
0.135503
0.0952423
0.0437981
-0.0156023
-0.0702104
-0.089752
-0.455331
-0.27951
-0.168861
-0.0863122
-0.0306299
-0.00180591
0.00291495
-0.0107466
-0.037257
-0.0667299
-0.079827
-0.888404
-0.661688
-0.513288
-0.3802
-0.266473
-0.179833
-0.123311
-0.0941817
-0.0870525
-0.091882
-0.0866044
-1.20288
-0.97391
-0.823869
-0.66894
-0.519756
-0.389772
-0.28764
-0.215551
-0.171052
-0.145639
-0.122001
-1.42022
-1.20692
-1.0726
-0.916134
-0.753583
-0.599371
-0.464995
-0.357261
-0.278101
-0.222047
-0.171851
-1.57764
-1.37399
-1.26134
-1.11114
-0.948919
-0.78634
-0.634293
-0.501959
-0.395062
-0.312205
-0.239346
-1.69288
-1.48979
-1.40336
-1.25837
-1.10213
-0.940518
-0.781765
-0.635305
-0.508882
-0.404092
-0.31058
-1.75162
-1.58319
-1.50352
-1.36262
-1.21548
-1.05944
-0.900691
-0.748093
-0.609976
-0.489555
-0.377983
-1.7931
-1.6452
-1.55688
-1.43147
-1.29376
-1.14442
-0.989269
-0.835819
-0.692082
-0.562705
-0.43766
-1.82459
-1.68052
-1.59184
-1.47435
-1.34314
-1.20018
-1.0499
-0.898377
-0.752648
-0.620392
-0.486702
-1.83476
-1.69406
-1.60838
-1.49578
-1.36951
-1.23192
-1.08651
-0.938419
-0.793925
-0.657991
-0.522006
-1.81923
-1.68489
-1.60424
-1.49655
-1.3751
-1.24248
-1.1018
-0.957636
-0.815652
-0.679893
-0.542439
-1.79494
-1.66281
-1.58471
-1.48037
-1.36289
-1.23471
-1.09864
-0.958823
-0.820416
-0.686975
-0.549426
-1.76595
-1.63178
-1.5541
-1.45149
-1.33682
-1.21233
-1.08063
-0.945534
-0.811775
-0.682709
-0.548861
-1.71545
-1.58452
-1.50996
-1.40987
-1.29815
-1.17734
-1.05022
-0.920562
-0.79265
-0.669481
-0.54021
-1.65676
-1.52767
-1.45504
-1.35704
-1.24829
-1.1315
-1.00972
-0.886748
-0.766292
-0.65089
-0.528474
-1.59553
-1.46468
-1.3919
-1.29535
-1.18949
-1.07733
-0.962201
-0.847779
-0.736886
-0.630769
-0.516739
-1.51819
-1.38878
-1.31772
-1.22396
-1.12232
-1.01681
-0.911212
-0.808502
-0.709544
-0.614103
-0.506328
-1.42936
-1.30204
-1.23259
-1.14235
-1.04678
-0.951491
-0.860395
-0.774638
-0.691292
-0.607729
-0.506632
-1.33156
-1.2057
-1.13635
-1.05022
-0.964031
-0.885333
-0.816491
-0.753989
-0.689568
-0.617651
-0.525288
-1.22182
-1.09555
-1.02473
-0.945755
-0.877718
-0.827908
-0.792608
-0.75959
-0.713954
-0.648581
-0.557056
-1.0877
-0.960371
-0.888794
-0.830353
-0.801454
-0.80015
-0.810517
-0.808704
-0.774759
-0.704762
-0.601589
-0.949275
-0.792536
-0.744369
-0.74328
-0.781809
-0.843225
-0.901743
-0.920872
-0.881619
-0.791721
-0.668998
-0.572077
-0.50807
-0.588968
-0.69566
-0.824523
-0.950102
-1.06156
-1.08527
-1.02252
-0.900647
-0.754051
0.28367
0.366434
0.380623
0.334308
0.270129
0.210553
0.146711
0.0710442
-0.0150104
-0.0955613
-0.139223
0.124122
0.273989
0.364026
0.36695
0.290798
0.184331
0.101047
0.0313406
-0.0498811
-0.148846
-0.210909
-0.326705
-0.164013
-0.0137383
0.0826226
0.098058
0.0217952
-0.0947843
-0.17749
-0.231193
-0.290017
-0.352489
-0.82673
-0.732985
-0.59295
-0.475275
-0.401183
-0.414662
-0.514867
-0.608008
-0.640866
-0.628865
-0.601773
-1.31711
-1.31906
-1.23614
-1.17374
-1.13702
-1.14071
-1.21836
-1.32005
-1.3426
-1.26005
-1.0937
-1.73462
-1.8543
-1.85553
-1.89716
-1.967
-2.06784
-2.19399
-2.33104
-2.36454
-2.23094
-1.95253
-2.0401
-2.28694
-2.38653
-2.55978
-2.77325
-3.02992
-3.31355
-3.55986
-3.67076
-3.52167
-3.12843
-2.25764
-2.60778
-2.79881
-3.10791
-3.47569
-3.91331
-4.40456
-4.86654
-5.15734
-5.05031
-4.57567
-2.37175
-2.81116
-3.07741
-3.51053
-4.02175
-4.63748
-5.34804
-6.08366
-6.60065
-6.63384
-6.03276
-2.3393
-2.89798
-3.20072
-3.73742
-4.36997
-5.13932
-6.04045
-7.01029
-7.82421
-8.1244
-7.48481
-2.17475
-2.8406
-3.12342
-3.76512
-4.49769
-5.38591
-6.43196
-7.58257
-8.66896
-9.1994
-8.62902
-1.90809
-2.53402
-2.95028
-3.59289
-4.38858
-5.35664
-6.49194
-7.73687
-8.97274
-9.6359
-9.29837
-1.50164
-2.0864
-2.55923
-3.21086
-4.03285
-5.03728
-6.20842
-7.47414
-8.67465
-9.47129
-9.20689
-0.940501
-1.48766
-1.98045
-2.62567
-3.44176
-4.43949
-5.59296
-6.82006
-7.96531
-8.74887
-8.56582
-0.289395
-0.782006
-1.2684
-1.89162
-2.68208
-3.64762
-4.75055
-5.89249
-6.90149
-7.5335
-7.56588
0.42675
-0.0194797
-0.496792
-1.09864
-1.85911
-2.78061
-3.81215
-4.83626
-5.66765
-6.12484
-6.24763
1.12584
0.69379
0.206874
-0.386813
-1.11921
-1.98828
-2.93378
-3.82697
-4.48743
-4.78893
-4.85308
1.6343
1.16815
0.645282
0.0559463
-0.632355
-1.42501
-2.26431
-3.01787
-3.51009
-3.63148
-3.47448
1.81789
1.30992
0.775316
0.224344
-0.39481
-1.10393
-1.85331
-2.49699
-2.83736
-2.73591
-2.27083
1.68122
1.18711
0.685166
0.168821
-0.415191
-1.08682
-1.79923
-2.37854
-2.58438
-2.31344
-1.62951
1.30213
0.809363
0.331312
-0.164139
-0.713279
-1.32949
-1.98152
-2.50844
-2.54519
-2.00924
-1.28374
0.696368
0.233643
-0.180238
-0.602095
-1.06898
-1.58872
-2.11745
-2.40304
-2.21105
-1.67865
-1.12376
0.132214
-0.299735
-0.609202
-0.920939
-1.28664
-1.66142
-1.88811
-1.89653
-1.67835
-1.33002
-1.00109
-0.596817
-0.877917
-0.994625
-1.11568
-1.26944
-1.4187
-1.48542
-1.43962
-1.28601
-1.07345
-0.862566
26.6227
19.5336
14.8497
11.6664
9.40274
7.72717
6.41804
5.36481
4.51626
3.86031
3.41986
21.7428
20.9792
18.7069
15.8942
13.094
10.6509
8.67187
7.113
5.88595
4.94185
4.28575
16.0973
17.8048
17.5411
16.4019
14.5022
12.3781
10.326
8.52914
7.03686
5.85176
5.00984
10.1183
12.981
13.6631
14.0482
13.5257
12.3637
10.8213
9.22223
7.746
6.4864
5.51798
6.07749
8.89152
9.53591
10.8968
11.2185
10.9622
10.1967
9.11141
7.91525
6.77606
5.84743
3.60618
6.06628
6.48137
7.94051
8.71021
9.07518
8.93097
8.3861
7.58826
6.69923
5.89996
2.35183
4.04477
4.58703
5.79817
6.6191
7.24537
7.48856
7.36545
6.94451
6.34491
5.72816
1.94141
2.96305
3.42657
4.39186
5.11107
5.77274
6.18184
6.31386
6.17311
5.82759
5.42037
1.69913
2.45829
2.78068
3.531
4.112
4.70973
5.1474
5.39679
5.42821
5.26844
5.02592
1.40701
2.11671
2.38823
3.00891
3.47651
3.98879
4.39321
4.67475
4.79257
4.74939
4.62364
1.4213
2.01002
2.20811
2.72406
3.09425
3.52243
3.87106
4.14045
4.28855
4.30507
4.25101
1.80908
2.175
2.24952
2.64115
2.90644
3.24767
3.52981
3.76436
3.91037
3.95363
3.93572
2.0631
2.33407
2.36153
2.66626
2.84511
3.10854
3.32355
3.51307
3.6376
3.68181
3.6813
2.1312
2.41581
2.45883
2.72038
2.84495
3.05097
3.20796
3.35207
3.4461
3.47597
3.46942
2.43956
2.61597
2.60296
2.80563
2.8819
3.04074
3.14946
3.25187
3.3125
3.32084
3.30161
2.66146
2.77753
2.73984
2.89945
2.93958
3.05911
3.12829
3.19292
3.21878
3.19881
3.15706
2.70494
2.8431
2.83178
2.97664
3.00145
3.09262
3.13163
3.16182
3.15176
3.09796
3.01713
2.86038
2.9652
2.94084
3.05831
3.07165
3.13995
3.15458
3.15142
3.10283
3.01211
2.8947
3.02345
3.09101
3.05182
3.14539
3.15453
3.20562
3.19756
3.1573
3.06565
2.93291
2.7789
3.12553
3.1716
3.13881
3.23244
3.25686
3.29529
3.26316
3.17598
3.03033
2.84702
2.64588
3.20356
3.23855
3.2289
3.35348
3.40619
3.42539
3.35005
3.19656
2.98393
2.74546
2.50224
3.30821
3.34803
3.40344
3.59707
3.64638
3.60423
3.44487
3.199
2.91026
2.61941
2.34399
3.27787
3.61902
3.78003
3.99521
3.95477
3.77987
3.49383
3.14462
2.78942
2.46127
2.15929
4.84583
4.6054
4.81712
4.72935
4.37954
3.93436
3.44948
2.9852
2.587
2.25099
1.93972
0.767477
6.9097
7.8986
7.53514
6.54824
5.53759
4.6521
3.91274
3.30282
2.82264
2.51665
-28.561
-12.5004
-5.79076
-1.04082
1.23747
2.08278
2.21431
2.07531
1.85869
1.64659
1.52852
-38.1834
-26.3776
-19.9451
-12.2404
-6.77221
-3.32621
-1.44847
-0.485944
-0.0184238
0.222284
0.407926
-37.6851
-31.9618
-28.0794
-20.6715
-14.4603
-9.38914
-5.8878
-3.64966
-2.28029
-1.44633
-0.84796
-34.1958
-31.8335
-30.0009
-24.6059
-19.4497
-14.2458
-10.0106
-6.86126
-4.67571
-3.20396
-2.18477
-30.7075
-29.6005
-28.7003
-25.144
-21.4541
-17.0183
-12.9385
-9.49101
-6.82521
-4.85641
-3.42521
-27.8437
-27.1715
-26.5382
-24.0704
-21.481
-17.9794
-14.4808
-11.2054
-8.42977
-6.21462
-4.51143
-25.3704
-24.9114
-24.3523
-22.479
-20.5638
-17.8035
-14.9266
-12.0264
-9.39101
-7.13114
-5.29401
-23.2467
-22.8655
-22.3246
-20.7947
-19.2768
-17.0271
-14.658
-12.1524
-9.76875
-7.61034
-5.72684
-21.415
-21.016
-20.4738
-19.1384
-17.861
-15.9514
-13.9627
-11.7981
-9.6865
-7.71506
-5.93828
-19.8088
-19.3588
-18.7949
-17.541
-16.4104
-14.7235
-13.0118
-11.1211
-9.25852
-7.48661
-5.88372
-18.1882
-17.7502
-17.1335
-15.965
-14.9477
-13.4122
-11.9047
-10.2309
-8.58291
-6.99049
-5.54433
-16.6267
-16.139
-15.4962
-14.4492
-13.4816
-12.0523
-10.698
-9.20018
-7.7387
-6.32007
-5.03061
-15.1704
-14.6037
-13.9485
-12.9599
-11.9656
-10.6544
-9.42094
-8.07151
-6.77604
-5.53148
-4.38588
-13.6378
-13.0324
-12.3889
-11.4324
-10.4514
-9.23119
-8.0887
-6.86911
-5.7247
-4.65338
-3.6627
-12.1291
-11.4676
-10.8239
-9.88719
-8.92512
-7.77417
-6.7063
-5.60679
-4.60779
-3.71351
-2.91745
-10.6581
-9.92513
-9.2661
-8.3343
-7.37101
-6.28352
-5.27618
-4.29459
-3.44561
-2.73092
-2.11505
-9.16591
-8.36428
-7.68924
-6.75994
-5.78649
-4.74446
-3.79715
-2.94395
-2.26063
-1.73352
-1.2958
-7.6433
-6.77324
-6.07821
-5.14726
-4.15587
-3.14552
-2.27435
-1.57677
-1.08728
-0.765812
-0.523938
-6.0932
-5.1516
-4.4258
-3.47918
-2.4569
-1.48336
-0.730834
-0.235426
0.0277239
0.135822
0.189743
-4.4961
-3.4966
-2.71017
-1.71864
-0.665785
0.222104
0.767811
1.00174
1.01657
0.922088
0.818026
-2.9497
-1.75149
-0.859224
0.205538
1.2126
1.88574
2.09714
2.04944
1.84538
1.60168
1.38422
-0.778355
0.0943352
1.26343
2.33252
2.98834
3.14724
2.94581
2.58627
2.19256
1.85187
1.66845
-1.3008
2.93268
3.80241
4.00829
4.01899
3.75576
3.29015
2.81269
2.40945
2.08385
1.81404
-2.94543
-2.41243
-1.69845
-1.43009
-1.31746
-1.26092
-1.3767
-1.97674
-2.80524
-2.28269
-1.97556
-1.55154
-1.40916
-1.31746
-1.275
-1.39056
-1.65396
-2.18219
-2.12797
-1.87805
-1.49198
-1.36464
-1.29819
-1.25707
-1.33535
-1.58827
-2.03759
-1.87054
-1.72165
-1.3977
-1.29196
-1.25223
-1.21828
-1.24679
-1.49351
-1.81659
-2.51159
-1.39625
-0.129413
0.676279
0.664319
0.227756
-0.64838
-1.88156
-2.74098
-1.90596
-1.13567
-0.154838
0.495203
0.487457
0.106661
-0.583511
-1.47806
-2.09738
-1.88842
-1.06263
-0.218346
0.328535
0.321609
-0.0168717
-0.592969
-1.38784
-2.00358
-1.52383
-0.978726
-0.302859
0.172274
0.172341
-0.123586
-0.621736
-1.25345
-1.70366
1.58886
1.49439
1.48512
0.0433904
-0.00493645
1.18621
-0.919333
0.989509
1.1723
2.25074
-0.0112158
0.995964
-0.0314434
0.0175931
1.58608
0.502682
0.0090541
0.0429429
0.500485
1.67704
0.299044
-0.727839
0.697609
0.0264246
1.55955
0.0180726
-0.0285525
-0.878878
-0.163359
0.0474317
0.0089988
0.935104
0.00686022
0.627549
0.934244
1.48043
0.0252079
1.55439
0.00702807
0.948512
-0.514317
0.634008
0.0139161
0.703996
-0.204626
-1.55585
0.0292632
-1.41008
1.4189
0.913339
0.05004
0.958455
0.001242
0.0147559
0.893535
0.305321
-0.695548
0.930998
-0.144047
0.0143563
0.144792
0.00115079
0.0066903
0.0824949
-0.876374
1.66688
0.0392251
0.946073
1.47645
2.21185
0.010826
2.32742
0.0494605
2.37147
0.0250524
2.14729
-0.662267
0.654578
-0.207394
-0.639861
0.011442
0.0935545
1.60458
1.6011
0.0981837
0.0479127
-0.14279
0.00135252
-0.352706
0.0166851
1.44682
0.924474
-0.648004
1.66295
-0.660141
-1.20044
0.0242358
-0.104186
-0.281361
2.38557
0.36254
-1.27508
1.8473
0.422583
-0.011504
1.33125
0.000838765
1.6003
0.00447051
0.0474953
0.715336
0.630296
1.82049
0.0595562
0.0345881
1.60805
0.906577
0.569416
1.04001
1.63313
0.0610098
2.50289
-0.115266
0.0106688
-1.49401
-0.12241
0.00216513
0.00100838
0.00072749
0.00345247
0.809152
0.015272
-1.34659
2.20075
1.39836
-0.00481026
-0.593278
0.0760165
0.0545127
1.62296
0.0123319
0.201588
-0.306741
1.28833
0.88472
0.0205128
-0.215304
0.934566
2.45946
0.549703
0.651847
1.25347
0.0295722
2.39758
0.0513126
0.0163365
0.03932
-0.580943
0.00845332
1.66606
-0.0436385
-0.0455181
2.25801
1.63979
0.0400737
0.0150739
-0.404672
-0.0596573
-0.138735
-0.917777
0.00631982
0.00245454
-0.136963
0.228556
0.975603
0.912653
-0.000108482
0.0157743
-0.250487
0.961753
0.908349
-0.694744
1.42356
-0.0367236
1.21099
0.0688874
0.636563
0.548116
1.57858
-0.177803
0.00559518
0.0254062
1.60139
-0.535579
1.4647
1.66124
1.23799
-0.197592
0.00373234
1.60024
-0.105246
0.99762
0.011077
0.0117709
1.40821
0.000828429
1.62032
0.000176491
0.995867
1.59876
0.014585
0.560683
0.188862
1.06113
0.656438
0.0104179
1.45257
0.0345094
0.707015
0.0311675
0.00219161
0.0583153
0.0253859
0.0351785
0.00885262
0.871683
-0.0292962
0.0116682
0.00437199
0.0813781
-0.513689
1.59552
0.655839
2.65384
0.018083
-0.360408
0.0249109
1.43036
0.845519
0.851452
0.0345027
0.0490723
0.375871
-0.580517
1.16698
-0.052687
0.617413
0.0160282
-0.809284
0.0122435
0.0150662
0.0153394
0.746094
1.72466
-0.0269949
1.22391
0.342795
1.5592
-0.0147751
0.616682
0.00010651
-0.168609
1.58865
0.678949
0.707327
0.0328337
0.174565
0.862973
-0.0277924
-0.0390715
-0.064146
0.734094
1.03199
0.0295582
1.57658
0.570262
0.0120882
1.43448
1.5984
-0.0238715
2.39736
1.10153
0.0121275
0.0224594
-0.0139948
1.61678
-0.0724337
0.905024
1.43068
0.010052
0.814739
-0.737758
-0.102334
0.0177918
1.46634
0.991151
-0.128317
0.712211
1.01425
0.0139943
1.11843
0.0626797
1.28673
0.0516999
0.360288
0.0345169
0.673151
0.00182948
-0.6658
0.710672
-0.952292
1.31971
0.0472843
0.00629632
-0.775734
1.50749
0.0252942
-0.0176159
1.53249
1.84209
0.6034
0.00706471
0.561497
0.00878919
0.0900031
0.0866742
0.620463
0.0282803
1.58558
0.0126632
0.740738
-0.0107922
-0.602592
1.24851
-0.0053132
-0.696308
0.0423885
0.679717
1.42598
-0.107951
-0.34643
0.0164084
1.00622
0.0185539
-0.0681441
0.00235072
0.0250822
0.592028
0.0257524
0.00426329
-1.17265
-0.0980965
-0.0327369
0.371363
0.00493799
1.60059
0.00158701
1.20075
0.688489
0.0130363
-0.0272166
0.0207499
1.45058
1.60192
1.7147
-0.410045
0.00282788
0.0146225
-1.1406
-0.0877385
1.4546
-0.0822262
-0.759601
0.00891059
0.0163789
0.803885
0.00787562
0.901657
1.64306
0.558562
0.0168462
1.67086
-0.0073228
0.849746
0.0222846
0.0311124
0.0631018
0.0079272
0.048315
-0.554778
1.25559
-0.795307
0.00331963
3.09843
0.0304896
-0.802241
0.65956
0.605995
1.09313
0.0247213
-0.00751149
1.60976
1.24328
0.0100261
0.000483934
-0.449794
-0.418855
0.00604311
0.975814
0.00637628
0.0631733
0.4893
0.0109837
0.0103483
0.0389463
0.0191737
0.0061552
2.57329
0.00257746
-0.686735
-8.17526e-06
0.00247077
-1.00581
0.00150191
0.88295
0.0731822
2.3481
0.000969557
-0.173322
-1.08539
0.605401
-0.012305
0.0298253
1.48457
-0.181831
0.00467815
0.0368127
0.0523553
0.0108056
0.599154
0.195394
-0.125812
0.0317728
0.0616167
0.266292
0.00684697
0.0095527
-0.465305
1.70172
-0.0589442
1.24167
1.6013
1.44247
-0.643771
-0.248899
-1.21951
0.00729476
-0.151738
0.000128641
1.59788
1.71013
0.0027969
0.00814642
-0.0343522
0.126731
-0.0015195
0.00310043
1.59702
0.576868
0.762568
0.875553
0.0495907
0.491733
0.109065
0.191446
0.817142
0.726589
1.58468
-0.0889086
0.633673
1.62518
0.307963
0.0845424
-0.666004
0.684297
0.0323024
0.0428582
1.32275
0.00735457
1.65265
-0.285369
1.66209
0.21801
0.859807
0.000506394
0.00839281
1.61929
0.0295474
0.154636
0.867248
0.0223911
0.0296632
1.19435
1.6079
-0.744123
0.00347571
0.0551582
0.699876
-1.26969
0.596288
0.0342955
0.008193
-0.605186
0.0150524
0.372349
0.0293679
0.0243367
0.0256637
0.599431
-0.0263874
1.5107
1.11447
1.51025
0.806359
0.167815
0.0169133
0.984795
1.65268
0.0281431
1.12923
-1.28186
-0.129489
0.0011053
0.0109621
-0.421368
1.53231
1.50109
1.10564
-0.582094
-0.112818
0.614268
1.61715
0.0105136
1.22926
0.0328695
1.22949
0.00680971
1.55909
-0.687116
0.0117029
0.00237784
-1.74496
0.0336624
0.356027
0.160477
2.38713
0.782392
0.0039
-0.417999
1.56088
0.0103119
-0.165283
-1.58013
1.53569
1.27056
1.32364
0.0102353
0.025501
0.00106995
1.2541
0.801031
0.0218403
1.67824
0.0224535
0.0017383
0.00469955
-0.0753056
0.696217
0.00182207
1.51491
0.0254165
1.48904
0.0246221
0.000294947
1.05002
-0.818441
0.0140851
0.999629
0.651475
-0.648869
1.64795
-0.0210643
0.0543608
0.0239296
0.0120871
-0.323436
0.0252328
2.12637
0.999647
1.20129
-1.13387
0.0337418
0.016846
1.65251
1.52367
-0.456008
0.596555
1.63715
0.112878
2.37622
0.0260586
0.0264843
0.0227741
-0.0209394
0.00708036
0.758519
1.717
0.027041
2.18285
1.11887
-0.827279
0.01784
0.552687
1.66767
-0.563868
1.81501
1.70629
0.296329
1.32798
0.103506
0.0303138
0.0161909
-0.0266253
0.0021238
0.00284016
-0.597553
0.00458878
-0.0388218
0.0217761
0.0357989
-0.509707
0.0420206
0.00937699
0.599559
0.350801
0.0866845
0.0298865
0.475915
-0.0307909
0.0299647
0.0126697
-0.843587
0.0492429
-0.162082
0.627013
0.645579
1.54065
0.604809
1.87686
0.0134425
2.18684
0.640121
0.382932
0.773771
0.0505652
0.00518861
0.0798062
2.21538
0.589332
1.20377
0.00404119
1.83687
-0.431111
1.96867
0.0315328
0.00194535
0.667044
0.000551631
1.59162
0.00763265
0.0669744
0.0257121
-0.950842
-0.0418998
0.160125
1.60028
0.0011426
0.00940965
-0.644749
0.00423235
0.580335
0.0393309
1.6008
-0.0337362
0.44693
0.0299853
1.26857
1.02836
1.6189
-0.0419837
0.0219948
1.53391
0.000376988
1.46102
0.0102696
0.0088516
0.177007
0.0576973
-0.652208
0.0142213
-0.0600755
-0.00501327
0.0181893
0.0202101
0.00642255
-0.96723
0.600243
0.0271157
0.79688
0.697881
-0.938006
-0.203136
-0.306569
0.0172914
1.66507
0.118093
1.605
0.0323571
1.59583
0.00080688
0.0084779
0.00741907
0.0997742
-0.00537206
0.0117343
0.0128434
2.77191
0.0304665
-0.0631263
0.0172283
0.733037
0.0215884
-0.172768
1.46598
-1.27611
0.00277339
2.0192
0.0307532
0.807983
0.294869
1.8094
0.00403807
2.48072
0.00874718
1.34982
0.00839196
2.40984
0.0169404
0.00412206
0.0176654
0.00280387
0.536357
0.0354038
-1.58278
1.62124
0.00833832
0.00924641
0.0111072
0.695006
-0.579267
-0.075347
0.0324176
0.0124148
0.710925
0.58185
0.0587136
0.62182
0.0250688
-0.498909
1.47596
1.02754
0.409443
0.00969391
0.00969717
0.0261011
0.976193
0.0309463
-0.0837008
0.619541
1.5774
1.29124
0.790364
1.12677
0.00107465
-0.752466
-0.0646791
0.00366088
-0.168645
1.6087
0.869704
-0.0274699
0.0241493
1.42751
-0.112427
0.0262384
-1.22895
0.0206975
-0.169418
0.731606
0.032541
1.61336
0.810256
-1.40901
1.55811
0.991665
-0.0316892
0.00106904
0.155087
0.205958
1.47295
0.0416875
-0.726613
0.0464364
0.962206
0.00175839
0.00572592
0.0223874
0.0362163
1.60131
0.568478
0.0421653
0.0265099
0.010938
1.60148
0.40573
1.88735
1.48991
0.941909
0.0180005
0.00640869
-1.25156
-1.14318
0.0090068
1.17957
0.0366621
1.59087
1.981
-0.109879
0.860138
1.41968
0.965915
-0.0480826
0.00406081
0.0172508
1.43147
0.0323234
1.57345
1.34367
1.29611
1.67074
-0.0482607
0.681634
1.41226
1.40986
-0.611257
0.615878
1.71227
-0.198512
-0.405736
0.76426
1.43849
0.0851784
-0.644625
0.564001
0.0110527
0.024292
0.0368805
0.781097
1.53839
0.099184
1.24499
0.000784148
0.894549
0.0262256
0.0188938
0.00514111
0.0134988
0.709998
0.0201693
1.56905
0.676037
2.69606
0.670085
0.661349
-0.0952537
-1.35698
-0.0924163
0.0215507
0.00363083
0.0118669
0.0192462
-0.605837
0.652233
0.71958
0.000958609
0.00199801
0.022038
1.01386
-0.0686504
1.7803
0.0268048
1.75429
0.00196242
0.00509662
-0.00010348
0.0132429
1.73762
1.53659
0.0218093
-0.611263
0.00131723
-0.168331
0.026744
0.0212269
0.421839
0.00474545
1.47366
1.4021
-0.0239227
-1.0901
0.0725392
-0.440935
0.00225173
0.0204497
0.00955351
-0.248971
1.60835
-0.00389822
0.00286701
1.64775
0.727953
1.33823
0.0144745
0.0157527
0.00628567
1.59949
0.00988089
1.19177
0.948607
0.00694935
0.0518234
0.614998
1.42161
1.42806
-0.127644
-0.159764
-0.667425
-0.0676226
1.84719
-0.455185
0.0341893
-0.682087
1.60182
0.00527697
0.00878155
1.1754
0.0010103
1.2825
0.0186274
0.03601
0.0126792
0.00633802
1.45337
1.60845
0.0330759
0.0119838
0.594156
0.00549614
1.44752
-0.417637
0.00075647
-1.5987
1.51654
0.00239846
0.0572128
0.0625846
0.00333364
0.00549125
1.59999
0.000418851
0.0737019
0.662987
0.171291
0.0178577
0.0400158
0.0259329
0.0168944
1.01869
1.72248
-0.483748
0.258163
-0.713666
0.0141023
0.000598499
0.0271748
0.948923
0.0327682
-0.191528
0.00403282
0.0136616
0.00746187
1.65275
0.0370529
0.00323302
1.60707
1.95808
1.38318
0.0271393
0.117454
1.16675
0.0191843
0.00550947
0.0093965
0.722568
-1.1133
-0.171102
0.284649
0.0110838
0.612896
2.32463
1.55537
-1.09244
0.557786
0.00750396
0.00874076
-0.211702
0.682097
0.39889
1.60635
1.64046
0.0534626
0.0257167
0.0100525
-0.226405
-1.12873
-0.247249
2.00348
-0.0441589
0.0667826
1.60091
0.0102312
0.00480516
1.18798
-0.00780526
-0.00415467
0.0281243
0.355507
0.00753216
1.60626
0.0212306
0.751513
-0.746778
-0.113214
2.62485
-0.690399
0.019279
0.170012
0.0214897
0.00638052
-0.265198
0.0214097
0.750139
-0.370648
0.00279152
0.0620117
-1.66287
0.0189614
1.30264
-0.00333981
1.04433
0.00594044
0.0202129
0.0699894
0.679583
0.0270106
-0.233781
1.66054
0.936135
0.0346482
0.743613
0.0162393
0.00880071
2.16179
0.0200605
0.046112
0.633856
-0.0960501
-0.714945
-0.0373887
-0.209238
-0.45415
0.0311674
0.00260718
0.00457681
1.64064
1.60119
0.0283416
1.67364
1.41715
0.0117774
1.60093
1.22529
0.0269793
2.81078
-0.810513
0.0051806
0.0384053
1.73985
0.0414398
0.0127099
0.0180223
-1.52524
1.61974
0.0151414
0.027401
0.013167
0.000995228
0.514521
0.00496716
1.55343
0.0676757
0.00545675
1.33261
1.72061
0.0256793
-0.00775716
-0.000101634
-0.0605857
0.0350106
1.8669
1.39379
1.6002
-0.0994647
0.00250374
0.0091313
-0.357864
-0.101823
2.92944
0.69285
1.56338
1.28362
-0.0411486
1.71745
0.574255
-0.383917
-0.23021
-1.22214
0.0514554
0.736278
0.577359
0.00335533
0.0731515
0.0123047
-0.692245
0.0147493
1.29693
0.722385
0.0212394
0.0054763
0.00490139
0.0234577
1.60984
0.0257735
0.011661
0.0414305
0.33261
0.0304681
-0.0644134
1.22201
-0.0944709
0.619507
2.2514
0.0755639
0.0109502
0.0155415
0.350741
1.53683
-0.110956
0.0631985
0.052251
0.0250094
0.0771787
-0.269319
0.917436
-1.03894
0.07124
1.5842
0.000590043
0.0145077
1.60949
0.0119297
1.60903
1.52432
2.26219
-0.628322
0.000391717
0.569926
0.0256477
1.59743
0.671113
1.60389
0.0128321
0.595791
0.0130394
-0.236274
1.5966
0.0343456
-0.656205
0.0129906
-0.0352977
-0.157831
0.0301865
0.000654747
0.998511
0.6889
1.35116
0.0132811
1.6017
0.630839
-0.0936816
-0.516422
0.0194883
0.0119065
0.000851242
1.31278
0.0720897
-0.239767
0.595963
-0.132883
0.549794
0.00336515
1.53394
0.0110615
0.295879
2.01014
1.12679
-0.0967443
0.00218053
1.36994
0.0230468
0.584488
0.0029442
0.0046191
-0.00534988
0.0227893
1.65547
1.58158
0.0100372
-0.287904
0.00759434
0.00135261
-0.0165261
0.00785528
1.61309
-0.537975
0.00379185
1.73512
0.0389735
0.0392912
0.0393354
0.0150509
0.058821
0.000174336
-0.10033
-0.234058
0.598505
0.889053
0.0101401
0.0245926
0.00707774
0.656189
-0.13305
1.45493
2.52942
-0.761885
1.62194
0.971852
-0.735386
0.0630932
1.03686
1.60172
1.14865
0.223051
0.747606
1.71508
-0.121628
0.318709
0.56845
1.28442
0.0370268
0.786153
0.0108347
1.46808
0.489731
0.98733
0.0381761
-0.444675
0.0282914
1.73533
0.673483
0.0182335
0.00416372
1.6016
-0.155818
0.0141814
1.35235
-0.02129
0.0179915
-0.0282987
-0.00438718
0.0204977
0.956964
0.0516277
1.23587
0.325301
1.73261
0.784004
1.59784
0.0285529
1.72503
0.0805022
1.43359
1.60192
-0.0225026
0.705386
1.52732
-0.00707556
0.0162625
0.0500068
1.66156
0.368829
1.25314
0.0126053
0.00479343
0.0417639
0.976431
0.0217793
-0.311573
0.718444
0.571951
0.560347
0.289345
0.0324303
1.81753
-0.171385
2.19935
-1.22674
0.00905577
0.0209554
0.0172645
1.29878
-0.00627359
1.44603
0.132649
-0.0272712
1.66616
1.59883
0.0160547
0.0748425
0.339322
2.04864
0.0263165
1.54096
0.0275759
-0.0333607
0.0160544
0.00703356
0.582864
-0.120964
1.50823
-0.562665
0.0270544
-0.0581586
0.00972929
1.59741
0.696691
1.67955
0.541291
0.281832
0.214505
1.751
0.00514678
-0.0531251
0.755236
0.298046
-0.701896
0.288484
1.60219
0.131003
2.09142
2.94852
0.020538
1.65187
0.0148998
0.0135342
0.37973
1.42371
0.0275711
0.0450694
1.79601
0.00287704
1.56963
2.3256
0.0162221
0.391731
0.0212043
1.59048
1.5973
-1.57297
-0.0572199
0.561115
0.0427365
0.329689
0.737784
0.465732
0.590031
0.821503
-0.0513239
0.030468
-0.00161838
-0.0273526
0.721714
1.13067
0.00477893
0.000313834
0.415919
0.158062
0.0420524
1.71493
0.00328706
0.973152
0.0208658
1.22698
1.83356
0.00384802
0.0309397
0.00851385
1.51471
1.72273
1.78338
1.59621
0.905701
0.0256084
0.0236891
0.0580243
-0.0616544
0.0170137
0.0958654
0.761966
0.783683
-0.0601434
2.1737
0.0111556
-0.68843
0.06071
0.0116778
0.035246
0.287782
1.60134
-0.076028
-0.0332898
0.0135745
0.240799
0.009697
0.00538644
-0.0825019
0.00221558
0.0186932
0.714251
0.0224784
-0.306019
-0.567691
0.0142111
0.0231732
0.00215452
1.57445
2.0562
0.0196753
1.51461
0.0183256
0.0114564
0.00370509
0.039336
0.0203429
-0.119504
-0.112645
0.0216748
1.23826
0.0298373
0.0140394
-0.124217
-0.100322
0.0676592
1.59235
-0.116782
1.25472
0.00237815
-0.805553
-0.00338309
-0.279711
0.0330825
0.00913876
1.34825
1.90298
0.693849
1.77172
1.63598
0.759911
0.638624
-0.254408
1.48186
0.0170718
0.0325805
0.552888
1.60331
-0.142705
-0.187438
1.38153
0.14294
0.688196
2.45859
-0.0916595
-0.291413
1.56162
0.523872
0.482623
0.613383
1.93155
1.43356
0.158139
0.0683655
1.20519