/*--------------------------------*- C++ -*----------------------------------*\
| =========                 |                                                 |
| \\      /  F ield         | OpenFOAM: The Open Source CFD Toolbox           |
|  \\    /   O peration     | Version:  3.0.1                                 |
|   \\  /    A nd           | Web:      www.OpenFOAM.org                      |
|    \\/     M anipulation  |                                                 |
\*---------------------------------------------------------------------------*/
FoamFile
{
    version     2.0;
    format      ascii;
    class       volScalarField;
    location    "0.78529";
    object      epsilon;
}
// * * * * * * * * * * * * * * * * * * * * * * * * * * * * * * * * * * * * * //

dimensions      [0 2 -3 0 0 0 0];

internalField   nonuniform List<scalar> 
21246
(
905.215
457.44
217.22
119.395
64.6987
32.5056
14.8191
6.57921
3.204
1.85903
1.38369
859.617
458.091
262.197
152.368
87.1804
45.9151
20.6479
7.49826
3.17939
1.70079
1.24301
540.105
361.039
251.571
163.523
101.462
58.0183
28.6619
11.1665
3.88092
1.6263
1.08117
234.316
256.589
213.696
156.343
105.655
65.4029
35.5832
15.699
5.6136
1.92794
0.9754
85.1429
182.95
173.596
139.77
101.999
67.8542
40.131
19.8447
7.88661
2.65201
1.02696
55.2018
127.39
137.644
119.612
93.0734
65.9273
41.8872
22.7799
10.1111
3.6523
1.2529
43.7308
81.8929
105.324
98.4675
80.984
60.5672
40.9084
24.0486
11.7393
4.64381
1.58846
33.8879
47.9575
75.3275
77.758
67.5496
52.9676
37.6881
23.6052
12.4431
5.34473
1.91115
24.7183
29.7346
48.8923
58.7735
54.2835
44.4131
33.047
21.7892
12.1961
5.59927
2.10983
18.1099
19.9302
31.1981
41.7032
42.114
35.9175
27.799
19.1005
11.1858
5.39861
2.13224
13.4295
13.9021
20.4674
28.19
31.3665
28.0867
22.5148
15.9813
9.66977
4.83871
1.9819
10.4299
10.0602
13.8481
18.8325
22.388
21.2211
17.5687
12.7904
7.91869
4.06848
1.7184
8.38276
7.52325
9.67199
12.691
15.5229
15.4822
13.221
9.82685
6.19528
3.25613
1.41868
6.8338
5.8321
7.03103
8.73392
10.6499
10.9586
9.63668
7.31106
4.703
2.53954
1.14634
5.81527
4.7417
5.40058
6.25594
7.37921
7.66292
6.90733
5.37369
3.56193
2.00157
0.949731
5.20055
4.05916
4.42384
4.76044
5.31934
5.48312
5.04799
4.06949
2.82764
1.68359
0.851772
4.79241
3.6438
3.84921
3.89182
4.12965
4.21288
3.98532
3.38427
2.50951
1.60321
0.86456
4.49119
3.39713
3.51169
3.40641
3.52509
3.65232
3.63986
3.31852
2.64834
1.80947
1.03047
4.2901
3.26393
3.27428
3.1344
3.35929
3.78125
4.20038
4.18454
3.53389
2.50216
1.46105
4.19399
3.28397
3.09384
3.13494
3.9672
5.52933
7.51005
8.18789
6.99093
4.66723
2.62137
7.00116
4.31739
3.57588
4.64297
8.46747
14.3182
16.4054
16.1664
14.3438
10.9578
6.30192
14.543
6.29303
6.8367
16.0022
22.6494
23.7896
22.5047
20.1497
17.6047
14.8791
11.0203
20.3663
33.6141
38.5393
39.7647
35.9981
30.2762
24.3528
19.3393
15.8182
13.7095
11.736
195.789
118.47
81.3589
56.4463
39.6693
27.9435
19.8529
14.6598
11.7502
10.5617
10.1247
1098.65
307.64
166.443
97.9775
56.0076
29.6683
14.5955
7.02494
3.58313
2.09655
1.51296
807.797
220.063
133.256
92.1846
60.9213
35.9194
18.7748
9.1591
4.54798
2.50297
1.64957
334.597
136.911
98.7685
82.9985
65.4375
44.2198
25.1203
12.5808
6.10754
3.16088
1.89847
71.0294
52.6304
56.4185
62.837
62.1327
50.3369
32.5078
17.3748
8.47844
4.19874
2.30454
25.1268
17.8717
24.5868
37.2684
48.5812
49.9858
39.1638
23.7768
12.2058
5.97038
3.11204
21.3495
13.5899
14.2816
20.0194
30.4254
39.4393
39.3132
29.0572
16.8369
8.64186
4.41628
21.4723
13.556
12.8149
15.1212
20.9709
29.6318
34.4872
29.5633
18.9751
10.343
5.50538
22.0966
13.9262
12.6579
13.8591
17.3171
23.5633
29.9318
29.2163
20.5755
11.8348
6.48117
23.0852
14.393
12.7455
13.3501
15.5263
20.0259
25.8811
28.0048
21.8097
13.0934
7.44576
24.343
14.9077
12.9841
13.0706
14.3037
17.5304
22.5362
25.91
22.4753
14.3422
8.22527
25.8663
15.6539
13.3979
12.8648
13.3241
15.502
19.5819
23.4484
22.1193
15.4177
8.98063
27.6744
16.5797
13.8627
12.7488
12.5842
13.8205
16.9202
20.7871
21.072
15.8253
9.62973
29.7616
17.5258
14.3986
12.8072
12.0653
12.4675
14.5682
18.0536
19.5334
15.7217
10.0292
32.2393
18.5776
15.0413
12.9768
11.7171
11.4654
12.6551
15.4118
17.6297
15.2369
10.12
35.3855
19.8425
15.8344
13.2629
11.5089
10.7298
11.214
13.0973
15.3925
14.3946
10.1084
39.4892
21.384
16.839
13.7056
11.4172
10.1446
10.1103
11.2738
13.0497
13.108
10.1791
44.7423
23.3593
18.2074
14.4451
11.5587
9.76222
9.26069
9.88957
11.081
11.5137
10.0254
51.7988
26.0787
20.2368
15.8145
12.2084
9.6904
8.68457
8.86887
9.60774
10.0863
9.62581
61.7119
30.0527
23.5396
18.4088
13.5942
10.1182
8.45904
8.16733
8.52037
8.89898
8.86792
75.3279
36.0255
28.6671
22.064
15.8982
11.2226
8.69083
7.82193
7.77379
7.9409
7.9904
91.271
44.2342
34.5787
26.5627
18.8907
12.8806
9.38398
7.90687
7.47725
7.41784
7.37342
118.431
54.6671
41.8929
30.812
21.5173
14.4963
10.2832
8.33506
7.64955
7.52848
7.69196
177.669
81.8507
48.2072
32.9058
22.6237
15.4944
11.1006
8.90692
8.0635
7.93956
8.40397
513
90.5595
51.0487
31.8177
22.3529
16.0731
11.9875
9.69795
8.65941
8.5322
9.04144
2435.45
821.819
318.551
113.63
36.8823
11.4492
3.5066
1.07475
0.337755
0.114968
0.0469637
1691.1
472.24
212.874
87.3616
32.3383
11.1419
3.62899
1.13383
0.349928
0.114191
0.0445806
1036.45
365.846
178.644
83.7085
34.0892
12.4943
4.23083
1.35308
0.419735
0.133744
0.0502088
716.591
269.835
144.878
78.7166
36.7659
14.5706
5.12237
1.67103
0.522763
0.165021
0.0596018
547.605
208.665
113.72
65.4061
32.9395
14.2021
5.31495
1.79024
0.561103
0.174004
0.0608508
450.479
166.151
92.4716
54.0162
27.5066
12.2029
4.76151
1.68053
0.552469
0.177934
0.0644272
384.32
137.54
76.7654
44.9459
23.1627
10.4469
4.1839
1.53093
0.525063
0.176263
0.0654041
335.804
116.455
64.7971
37.8055
19.5592
8.9003
3.62784
1.3653
0.4856
0.169689
0.067348
300.266
100.661
55.6347
32.3019
16.712
7.6396
3.15284
1.21409
0.446841
0.16305
0.0676686
273.812
88.8393
48.6999
28.1569
14.5551
6.66976
2.77644
1.0885
0.412404
0.15616
0.0663812
252.946
79.6678
43.337
24.995
12.9186
5.93232
2.48558
0.988114
0.382856
0.14886
0.0655029
236.771
72.237
39.0327
22.4947
11.6425
5.36282
2.26096
0.909574
0.359172
0.143037
0.0646706
225.432
66.3681
35.6315
20.5545
10.6727
4.93779
2.09527
0.852015
0.342163
0.139268
0.0642584
217.972
62.0037
33.0567
19.1284
9.98747
4.64827
1.98559
0.81506
0.331878
0.137222
0.0644825
214.175
58.6595
31.0466
18.0649
9.51417
4.46648
1.92357
0.796929
0.328361
0.13738
0.0652085
214.45
56.2708
29.569
17.3468
9.24906
4.39441
1.91159
0.79928
0.332628
0.140186
0.0668322
218.646
55.6264
28.8139
17.0635
9.25173
4.45622
1.96162
0.827514
0.346957
0.146436
0.0696196
227.994
56.7237
28.7601
17.1467
9.54275
4.73699
2.13307
0.910836
0.383612
0.161215
0.0758
244.146
59.9781
29.6272
17.6984
10.1538
5.25917
2.46365
1.08053
0.460934
0.194237
0.0889795
270.394
66.2519
31.8115
18.9111
11.1851
6.09514
3.01894
1.38778
0.610768
0.262232
0.11729
313.594
77.1126
35.9833
21.1232
12.81
7.3613
3.90364
1.92441
0.899954
0.405787
0.183029
389.929
94.087
43.0126
24.8184
15.3043
9.24691
5.2876
2.85073
1.46192
0.72015
0.346025
532.39
122.214
54.5974
30.994
19.3612
12.2456
7.55398
4.49203
2.57383
1.42519
0.766063
818.865
128.418
59.5457
37.4548
25.4347
17.4656
11.8083
7.78612
4.99923
3.1279
1.91202
2611.7
1617.29
603.825
211.846
68.7967
19.8924
5.34283
1.50025
0.443913
0.142983
0.054967
3017.66
1829.03
917.218
410.987
166.418
51.0001
10.3377
2.57857
0.712426
0.208675
0.0739828
2086.84
1533.25
960.606
508.238
239.672
90.8581
22.8619
4.52523
1.18536
0.332841
0.110269
991.135
1275.24
918.744
542.596
281.673
121.684
38.3581
8.2522
1.90195
0.533183
0.176166
476.895
1295.82
918.992
565.278
308.756
144.19
52.5668
13.8042
3.01796
0.822496
0.276405
552.157
1278.61
931.105
585.336
328.859
161.41
64.9976
19.9809
4.96009
1.24274
0.403102
620.442
1239.58
956.494
608.772
345.584
174.865
75.5728
26.2592
7.44301
1.98642
0.603008
643.301
1079.42
989.365
642.799
362.062
185.293
84.056
32.1256
10.2639
3.00217
0.929682
607.726
886.66
977.826
682.617
380.952
194.102
90.7538
37.3627
13.2496
4.2718
1.38846
563.614
732.533
923.709
720.622
403.165
202.501
96.1568
41.9453
16.2823
5.7681
1.9991
528.235
621.138
841.108
747.841
428.256
211.675
100.952
46.0491
19.3362
7.48995
2.78628
500.047
543.457
758.602
755.393
452.472
221.061
105.2
49.6831
22.3564
9.42871
3.76691
477.896
484.669
680.729
741.101
472.859
230.416
109.188
53.0309
25.3731
11.5977
4.98672
459.152
432.414
607.789
708.614
486.831
239.545
113.234
56.3488
28.4932
14.038
6.54633
448.554
387.362
540.524
662.17
490.851
246.831
117.255
59.7529
31.8162
16.8222
8.50962
444.015
351.578
473.073
603.503
481.8
250.411
120.625
63.4031
35.5581
20.1296
11.0004
444.848
320.971
407.313
520.535
459.941
248.394
123.289
67.5266
40.0225
24.2485
14.277
452.976
293.16
343.771
420.348
417.314
240.038
125.008
72.6319
45.7332
29.5977
18.6452
474.098
269.465
282.695
323.732
340.163
231.473
127.612
80.2245
54.0091
37.1323
24.9423
520.894
253.586
228.003
240.313
254.105
219.08
136.761
93.5063
67.0345
48.4055
33.8885
633.655
258.618
194.858
187.408
198.398
195.949
150.914
107.108
79.1072
59.005
42.5576
1066.22
373.952
274.725
239.853
214.619
200.946
159.365
118.903
88.3829
64.1686
44.2698
852.751
531.253
563.878
397.47
297.214
219.182
153.903
105.133
69.8606
45.4095
28.8035
1260.75
685.507
395.559
244.062
156.519
101.845
66.1786
42.5696
26.9862
16.8275
10.2994
331.711
183.822
28.2935
6.59288
1.76264
0.747602
0.491383
0.409792
0.380464
0.370942
0.37012
493.414
334.181
61.0624
10.5372
2.45918
0.902975
0.525665
0.413799
0.374558
0.360232
0.355443
577.712
345.151
88.8171
18.0976
3.11989
1.07483
0.565231
0.418926
0.368343
0.34891
0.339926
574.644
321.425
99.7105
23.2921
3.85708
1.23156
0.602278
0.423883
0.362449
0.338441
0.32606
523.964
305.481
103.933
26.508
4.7422
1.36539
0.63496
0.428996
0.357547
0.329746
0.315889
456.514
296.805
108.291
30.2854
6.12304
1.57172
0.667942
0.43532
0.354292
0.323064
0.308457
382.512
292.259
114.1
35.1688
8.12717
1.97691
0.738345
0.444525
0.352969
0.318196
0.302683
309.302
290.033
120.44
40.6186
10.6553
2.63234
0.869735
0.469053
0.355625
0.314953
0.298594
245.245
288.415
128.089
46.809
13.7764
3.62525
1.10527
0.517598
0.364455
0.314426
0.295798
192.873
285.963
138.315
54.5441
17.8286
5.12737
1.52512
0.615433
0.385097
0.317239
0.294395
150.518
283.968
150.394
63.655
22.8097
7.22184
2.21109
0.800429
0.429054
0.326092
0.294787
118.809
284.155
163.694
73.6093
28.4323
9.84373
3.20655
1.11418
0.514607
0.346636
0.298442
98.8667
284.521
178.799
84.9561
34.897
13.0673
4.58479
1.61463
0.671733
0.39021
0.30862
89.0336
282.034
195.754
98.5633
42.7066
17.0962
6.45826
2.38152
0.946799
0.477612
0.332885
88.6658
280.188
213.996
114.219
51.8057
21.9095
8.8551
3.47275
1.39197
0.639814
0.385469
97.36
276.415
232.432
132.621
62.836
27.8106
11.9168
4.9832
2.07998
0.92466
0.491524
113.17
267.812
248.247
154.292
76.9238
35.4715
15.9704
7.08926
3.12406
1.40713
0.695599
129.322
251.807
256.356
177.647
94.6472
45.5813
21.4479
10.0457
4.6894
2.20024
1.07208
144.982
231.302
252.832
198.987
116.186
59.1941
29.1689
14.3619
7.08747
3.50347
1.75118
159.662
208.266
235.519
211.187
139.572
77.3364
40.4892
21.0307
10.9516
5.71325
2.98614
173.162
179.997
204.378
206.658
159.854
100.505
57.5955
32.0105
17.6457
9.70825
5.33151
225.277
161.665
174.298
193.796
174.305
128.327
83.3356
50.7481
29.9885
17.5072
10.1329
256.586
143.196
143.016
148.731
145.718
128.159
100.361
71.2118
47.3376
30.4136
19.0013
525.764
568.787
421.006
346.487
274.471
205.941
147.189
100.98
68.0308
45.5123
29.9291
255.997
97.4263
21.7971
4.43078
1.35509
0.669022
0.47504
0.408299
0.3844
0.378811
0.382862
276.856
74.8891
15.3517
4.66432
1.52206
0.725443
0.493491
0.413683
0.385384
0.378881
0.383799
314.926
93.6833
14.9318
5.4712
1.9054
0.889487
0.553666
0.435549
0.392198
0.379554
0.382334
315.419
91.6838
14.0592
5.59625
1.9985
0.961478
0.585779
0.444477
0.389157
0.370267
0.370246
300.063
77.9289
13.3205
5.58206
2.01366
0.983936
0.586649
0.435979
0.376627
0.356442
0.35598
283.096
64.8309
12.5319
5.2854
1.9283
0.966475
0.572728
0.423155
0.36318
0.34283
0.342827
268.039
54.911
11.7698
4.91147
1.81289
0.931125
0.550016
0.40658
0.347874
0.32811
0.329162
253.853
47.5456
11.0471
4.55076
1.70824
0.892318
0.52656
0.390085
0.332629
0.312431
0.312314
243.301
42.1271
10.4557
4.26694
1.63623
0.857492
0.506864
0.37554
0.318626
0.297284
0.295167
236.679
38.3504
10.0055
4.05717
1.59713
0.832847
0.492772
0.36391
0.306699
0.283919
0.279776
234.147
35.8964
9.74883
3.94436
1.58894
0.822117
0.48524
0.355743
0.297184
0.272653
0.266096
234.47
34.2777
9.61348
3.90987
1.60902
0.825521
0.484467
0.351299
0.290252
0.263667
0.254979
238.408
33.4939
9.62279
3.95472
1.66242
0.845427
0.491595
0.351135
0.286131
0.256955
0.246125
243.641
35.303
10.1018
4.15567
1.7863
0.896353
0.513447
0.357892
0.28599
0.252997
0.240147
250.707
38.3488
11.0475
4.53069
2.00534
0.995624
0.5607
0.377025
0.292632
0.253193
0.236987
260.363
42.8736
12.6178
5.15902
2.3533
1.16749
0.647059
0.416664
0.310158
0.259548
0.237443
273.447
49.3258
15.0903
6.19048
2.9028
1.4566
0.799739
0.493548
0.348048
0.277238
0.244148
291.728
57.8614
18.7364
7.83495
3.77821
1.94162
1.07046
0.641514
0.427611
0.319165
0.264716
317.848
69.1584
24.0011
10.4345
5.2081
2.77371
1.56287
0.932256
0.597852
0.418018
0.320811
356.493
84.8416
31.7145
14.5753
7.61453
4.25142
2.49273
1.52323
0.974286
0.657901
0.473417
417.278
107.908
43.4456
21.2977
11.7767
6.96711
4.31563
2.76838
1.8338
1.25647
0.89436
522.06
144.435
62.3484
32.6713
19.2144
12.1058
7.98567
5.44826
3.82415
2.7565
2.04259
729.558
219.798
100.868
55.7377
34.4486
22.8531
15.9107
11.4943
8.56675
6.5675
5.16826
1336.99
378.335
195.072
122.388
85.0215
62.2512
46.9736
36.8208
29.7209
24.4901
20.2483
2.96367
3.43266
4.71219
17.6577
36.4173
51.0313
62.3783
72.7706
78.9184
2.28256
1.95311
7.03738
14.6925
19.169
21.2927
22.0517
23.6326
24.4642
2.50646
2.08906
6.9327
12.3398
13.1946
12.2031
11.2986
11.7655
12.5825
2.57661
2.36314
6.35451
9.30844
8.45586
7.03875
6.36868
6.5407
6.98842
3.41434
19.3889
40.3279
55.6799
66.2235
74.6471
78.853
79.4985
79.0052
6.84275
13.9631
19.4874
21.0393
20.9425
22.0561
23.1121
24.1096
25.0946
6.20689
11.2258
12.992
11.7417
10.5217
10.8549
11.9403
12.9596
13.3268
5.25353
8.27472
8.35667
6.85392
6.03071
6.02677
6.57801
7.38694
7.44644
0.00901794
0.00829404
0.00834745
0.00575144
0.46468
0.00756035
0.128217
0.00808483
0.0075357
0.00693768
0.467456
0.00812163
0.0103338
0.0052092
0.0146132
0.00728405
0.00596444
0.00573147
0.00724743
0.00710193
0.00664403
0.0607197
0.00852215
0.11421
0.00792479
0.00514225
0.00995904
0.120947
1.57705
0.384044
0.00705388
0.00643359
0.00716112
0.00806518
0.00679091
0.00826389
0.104436
0.00790869
0.00810428
0.00759186
0.218563
0.00809672
0.0417206
0.00849722
0.757899
0.259721
0.0188866
0.352514
0.00692577
0.00733032
0.387892
0.00760932
0.0580764
0.0425566
0.00732104
0.00667114
0.0580267
0.00762964
1.57408
0.0170285
0.111848
0.0431934
0.507731
0.0353363
0.229204
0.00713966
0.371693
0.00709249
0.00829668
0.00691972
0.00516098
0.00721087
0.0146188
0.00813487
0.0238475
0.00715101
0.0756353
0.00827896
0.0559245
1.01797
0.236403
0.0264896
0.00793311
0.00838036
0.0069746
0.0146104
2.40833
0.03346
0.0195654
0.0965645
0.0080914
0.00766276
0.220271
0.00734426
0.980889
0.512682
0.0129377
0.0059474
0.024931
0.00743877
0.0078866
0.341006
0.0067977
0.00616761
0.0151167
0.00811786
0.00458828
0.00845281
0.0140555
0.00671288
0.00796578
0.00814855
0.0072237
0.00656893
0.0216992
0.00769229
0.00754961
0.00731829
0.00792441
0.00673428
0.00703789
0.00782928
0.00893842
0.00499816
0.245798
0.00707716
0.324123
0.00471891
0.00629852
0.0089102
0.00778418
0.0167387
0.343892
0.00716098
0.00834216
0.00812109
0.0646743
0.01593
0.407243
0.00734071
0.0442325
0.00661343
0.219428
0.00868018
0.00752125
0.0251431
0.0162253
0.00711373
0.0071537
0.00705666
0.00714785
0.00766565
0.0277351
0.00783886
0.00621232
0.0226927
0.0197035
0.0439957
0.0054681
0.00747072
0.00549253
0.0339329
0.00720398
0.00772261
0.382959
0.0246509
0.0200893
0.00728928
0.00656548
0.21938
0.00590894
0.00543311
0.00792776
0.00646121
0.0064222
0.0064185
0.00583142
0.0291451
0.77385
0.00695975
0.00712533
0.067556
0.00849751
0.117911
0.00793822
0.0126066
0.00706199
0.00726691
0.00824824
0.0799608
0.0131781
0.00532291
0.00718534
0.205187
0.00832477
0.00760548
0.00743315
0.0259431
0.00957738
0.00856742
0.026985
0.00730128
0.0127199
0.00766147
0.00838776
0.0334168
0.00729817
0.00626905
0.00739783
0.00740651
0.110849
0.00759327
0.00827171
0.00672366
0.00791179
0.044675
0.00797708
0.0250093
0.00712172
0.0111968
0.0107313
0.00662186
0.0126697
0.022106
0.00480486
0.00764567
0.0770004
0.0223349
0.0116281
0.154022
0.043062
0.0071332
0.00712031
0.00785907
0.0279487
1.72966
0.31175
0.0084512
0.00814073
0.00809809
0.0251255
0.034459
0.00613722
0.165055
0.007619
0.0400835
0.00800372
0.00804569
0.479249
0.328326
0.00799251
0.113208
0.00975545
0.00726289
0.00603226
0.00746878
0.00673791
0.00786117
0.0196498
0.00703855
0.00841591
0.0100116
0.00738054
0.00819572
0.00795987
0.0168312
0.00661018
0.00719884
0.0176497
0.00694341
0.21422
0.00729731
0.00727736
0.0177327
0.00756021
0.00736235
0.00530664
0.00775975
0.00692184
0.0188673
0.00732258
0.00828502
0.238809
0.288584
0.00604184
0.00758719
1.53273
0.00824359
0.00683694
0.0433733
0.00834722
0.117133
0.00751743
0.00975612
0.00856392
0.00742866
0.0064771
0.00816078
0.00679929
0.00533597
0.00775843
0.00909414
0.007083
0.392629
0.00677387
0.00669991
0.00828141
0.064786
0.0645968
0.00744061
0.0860135
0.00816445
0.00646282
0.00691065
0.0824742
0.0065537
0.0070742
0.0147422
0.00671133
0.00769285
0.00706371
0.173806
0.00746428
0.00538542
0.02412
0.00691099
0.00778355
0.0059401
0.00708885
0.203025
0.00702369
0.520428
0.0696585
0.00846863
0.0115069
0.642498
0.0163267
0.00823876
0.00784879
0.00587118
0.0291569
0.109319
0.00726127
0.0252439
0.195442
0.0656684
0.0208287
0.00753811
0.0889421
0.365466
0.111124
0.00585108
0.00700511
0.00682945
0.0132219
0.00860273
0.0113618
0.00695796
0.00850139
0.2363
0.0098665
0.00539198
0.00800311
0.0079881
0.0072848
0.0189781
0.00511422
0.0174234
0.141959
0.00838649
0.00773776
0.109525
0.565007
0.0047807
0.0119648
0.00831662
0.0090493
0.0067515
0.00751896
0.00707909
0.212537
0.00755386
0.0247978
0.00766731
0.00528428
0.326118
0.00848883
0.00477108
0.0337242
0.0224961
0.00769953
0.0548112
0.00464539
0.00813948
0.33997
0.240126
0.00787088
0.00719705
0.00836642
0.0375286
0.0193653
0.00764803
0.00850977
0.0442944
0.00764207
0.257273
0.0533704
0.028479
0.00729713
0.17279
0.00705891
0.00719897
0.0105367
0.0100039
0.0304879
0.0064011
0.0133337
0.00868412
0.00486762
0.0434892
0.287334
0.00618878
0.153116
0.0126685
0.00628677
0.00667819
0.00806363
0.0280699
0.0122754
0.23869
0.00789637
0.0245949
0.00509538
0.00663136
0.00766607
0.0150848
0.194956
0.412534
0.00504787
0.00860036
0.00597141
2.36784
0.00618606
0.00876269
0.0068723
0.0277008
0.0227144
0.042685
0.00741178
0.0349064
0.00773903
0.00833533
0.0079377
0.0315696
0.0189243
0.15713
0.00587384
0.0288349
0.0266916
0.00825469
0.00739543
0.343255
0.00506265
0.00600471
0.00700739
0.144144
0.116133
0.0902243
0.0916647
0.00704334
0.00657737
0.0170276
0.00698021
0.110555
0.00692881
0.00823258
0.00733341
0.034763
0.0328854
0.00708762
0.00778499
0.0066949
0.0967206
0.0705472
0.0084549
0.0241625
0.241004
0.00941027
0.0175338
0.00740598
0.0283439
0.00759671
0.00692261
0.00763082
0.00779579
0.00644689
0.00715131
0.00535598
0.00853152
0.00716177
0.00565771
0.00590571
0.00806338
0.00806415
0.518914
0.0214064
0.0130711
0.00702392
0.303732
0.00835732
0.266814
0.0162828
0.0241974
0.0206566
0.00803103
0.321934
0.0341255
0.00532665
0.00778553
0.0063483
0.00667566
0.00827898
0.0076904
0.00818356
0.00682853
0.207178
0.00798675
0.00745191
0.0852274
0.0077323
0.190385
0.00659558
0.0514036
0.0056115
0.0191716
0.00856325
0.00786495
0.00841841
0.191336
0.0339031
0.00794995
0.00791327
0.00497612
0.00834982
0.00649866
0.00831302
0.264966
0.00682224
0.0475494
0.00872434
0.0076345
0.274967
0.279402
0.00680431
0.00659494
0.00710905
0.00830642
0.0149413
0.0406041
0.00721089
0.00851213
0.483943
0.651
0.00791932
0.0073262
0.00828232
0.0227346
0.325979
0.019112
0.00808004
0.00752663
0.286333
0.00722604
0.00875237
0.00678558
0.035096
0.357919
0.00771611
0.0206899
0.0078214
0.0358718
0.00738078
0.0242293
0.00608875
0.00643531
0.0864005
0.0334357
0.00842523
0.0085482
0.959722
0.00763896
0.00615834
0.00952832
0.035768
0.0199866
0.029071
0.00754568
0.0069183
0.00773569
0.00790267
0.462765
0.0157592
0.0120802
0.0071094
0.00794925
0.0428893
0.00701499
0.00753841
0.00695181
0.00713048
0.00841418
0.0156658
0.0353861
0.0181288
0.00622041
0.0103755
0.00724036
0.056131
0.00711257
0.00778556
0.490741
0.158823
0.00755397
0.00757275
0.0630502
0.00675498
0.00737696
0.0194609
0.0083167
0.00679754
0.0101414
0.00939104
0.00828403
0.00490753
0.00571618
0.0386473
0.113057
0.0337762
0.0320708
0.0062607
0.0203907
0.0277744
0.00852015
0.00836405
0.0068137
0.0249812
0.00607825
0.00695963
0.00731684
0.00511937
0.0437925
0.455949
0.00608602
0.00753778
0.00769385
0.0128331
0.00811868
0.00723213
0.0069397
0.0132325
0.00703773
0.0070266
0.00687321
0.00825696
0.0125098
0.055698
0.149436
0.0071035
0.00697589
0.0075495
0.0452278
0.00757987
0.129256
0.00721133
0.0261693
0.155234
0.00771185
0.017487
0.00849651
0.00696535
0.0176627
0.00852655
0.435412
0.00556253
0.00667417
0.00841711
0.0124763
0.00508811
0.0329796
0.311144
0.00751011
0.0064211
0.00840349
0.00784371
0.00691746
0.021273
0.00812927
0.00762622
0.00761781
0.0100492
0.0308114
0.00816113
0.00767556
0.00750977
0.0209735
0.00549923
0.0064892
0.0116357
0.137261
0.00974664
0.00633688
0.00628766
0.00837432
0.0378338
0.00649847
0.137378
0.00783851
0.00686438
0.0079073
0.00701268
0.0804851
0.0105958
0.0297311
0.00519404
0.00724142
0.00679053
0.0067075
0.027756
0.00823621
0.409754
0.0425177
0.257073
0.00666546
0.0102558
0.0275692
0.0196711
0.00774709
0.00878739
0.0334123
0.0124514
0.00802718
0.00541822
0.461308
0.00811323
0.17751
0.00927197
0.00828159
0.0256871
0.00755436
0.00691914
0.00682109
0.0077803
0.00734383
0.00479962
0.0081891
0.00701116
0.00714645
0.00943635
0.0214933
0.13646
0.0134811
0.0072272
0.170346
0.258855
0.00782332
0.00485024
0.00710847
0.0326524
0.00976394
0.0456366
0.00735705
0.0212301
0.00878027
0.00876041
0.00720426
0.00694799
0.00766057
0.0125477
0.0540559
0.00860513
0.0078885
0.00742979
0.252768
0.175113
0.00751067
0.00819695
0.00703657
0.00777453
0.00813651
0.00821566
0.00838232
0.00787577
0.0074261
0.00565603
0.0516875
0.0899463
0.00480631
0.00780318
0.00770518
0.00792919
0.0067148
0.208459
0.0082763
0.0063688
0.00755257
0.282098
0.117068
0.0394601
0.00779161
0.0167176
0.00771789
0.00781878
0.231881
0.0071492
0.00815751
0.00734432
0.0351605
0.0060295
0.00593835
0.00813783
0.0105952
0.166544
0.0196848
0.00815258
0.0046641
0.0368117
0.0306652
0.0199523
0.00842899
0.00718155
0.0056353
0.0140449
0.0298059
0.00829248
0.00687679
0.00817371
0.00736193
0.00824916
0.015827
0.00625807
0.176647
0.218391
0.0437185
0.00809642
0.467244
0.00853178
0.00719662
0.00875565
0.00789344
0.00765875
0.00767201
0.0142843
0.0467133
0.022796
0.00764862
0.011428
0.00768658
0.00859809
0.00733793
0.00755776
0.00737458
0.00792623
0.0081466
0.00724451
1.84771
0.00754713
0.00712684
0.00968822
0.157278
0.00709511
0.00796422
0.0186459
1.55128
0.00695867
0.00778442
0.0111312
0.0132709
0.0084677
0.00808483
0.00689569
0.00860425
0.0462484
0.00827845
0.0834892
0.00982644
0.114231
0.00823556
0.00821094
0.00629108
0.028852
0.0077527
0.00778958
0.00703861
0.00831534
0.00593733
0.208802
0.0065671
0.0258721
0.33045
0.0331341
0.0060536
0.0416351
0.00851218
0.00814043
0.00514486
0.00838546
0.00616135
0.00761205
0.288466
0.00723679
0.0106269
0.00730347
0.00464821
0.00536236
0.0198476
0.00769518
0.00694458
0.00804211
0.2821
0.0613503
0.373432
0.00683932
0.0100521
0.0070416
0.00776841
0.368489
0.00753655
0.00830517
0.0060986
0.226122
0.0330568
0.0396817
0.00682602
0.00536658
0.0430502
0.606587
0.00801568
0.00716192
0.388783
0.00760481
0.0193385
0.00791692
0.076423
0.00842121
0.0261678
0.00830286
0.00732097
0.00845595
0.00764017
0.0133419
0.00675574
0.00709275
0.00780432
0.00724419
0.0100033
0.0094504
0.0401333
0.00746143
0.00687415
0.255544
0.0236465
0.0461037
0.00832444
0.0353401
0.00745803
0.00828605
0.0265189
0.00646583
0.037063
0.352378
0.00610649
0.0133707
0.00653522
0.00741423
0.0177889
0.0156827
0.0069938
0.0416232
0.00813168
1.51201
0.0350714
0.474874
0.00812795
0.0210096
0.0120005
0.31591
0.00774219
0.00538818
0.00855547
0.00458893
0.119365
0.00815479
0.00890474
0.0243983
0.0284094
0.204904
0.00799097
0.00778424
0.0073543
0.0452917
0.00690631
0.20976
0.0115778
0.0506615
0.330429
0.00828479
0.0160506
0.0317008
0.0296404
0.0748988
0.0279439
0.00757425
0.0114182
0.00493258
0.00809978
0.00788364
0.00856488
0.0169651
0.00662877
0.0083253
0.00556409
0.0421696
0.00487451
0.00801933
0.101545
0.0146909
0.00689423
0.0107961
0.00813583
0.00709026
0.00735132
0.197558
0.00699164
0.0243594
0.00617235
0.024113
0.00796176
0.00694825
0.00796043
0.00753226
0.0180881
0.0734998
0.0454519
0.659049
0.231568
0.640765
0.00686759
0.00739179
0.00938186
0.00838764
0.00586643
0.0482825
0.00689758
0.121783
0.00612393
0.188168
0.00686424
0.00489235
0.00811798
0.293631
0.0086269
0.486919
0.00641253
0.00839347
0.0465451
0.0561541
0.00681827
0.0255064
0.0375494
0.0593889
0.116708
0.0199416
0.227734
0.0088402
0.00726429
0.26581
0.0182603
0.0083322
0.00628033
0.00743493
0.00504044
0.00528319
0.0100013
0.00773219
0.0170793
0.651263
0.00752352
0.0071402
0.00704821
0.00818769
0.0100434
0.00542477
0.00701947
0.00557409
0.377858
0.00702584
0.634931
0.0725711
0.00776516
0.177394
0.0490061
0.0179335
0.00666606
0.114457
0.0076904
0.00803886
0.333765
0.00751556
0.00824473
0.0057587
0.00809666
0.00735751
0.202605
0.0079264
0.53955
0.0134466
0.019636
0.00722589
0.0123965
0.0271566
0.00625253
0.249637
0.00776708
0.0116709
0.0283314
0.0072089
0.0157144
0.0304107
0.0200995
0.00747165
0.0342778
0.0634625
0.00644669
0.00732849
0.0276012
0.0069509
0.0189095
0.0242919
0.350107
0.00712341
0.00860259
0.00797068
0.00627666
0.00821992
0.00479187
0.0381091
1.40112
0.00822299
0.0240161
0.0280437
0.00820273
0.0342836
0.00709295
0.00695806
1.52667
0.0423515
0.326229
0.166738
0.00815756
0.00792873
0.0221048
0.225377
0.168203
0.238646
0.00493556
0.00817166
0.00714971
0.00632261
0.196356
0.0476294
0.00879808
0.00739475
0.0279817
0.0254446
0.0362911
0.00679678
0.0911072
0.217035
0.00638822
0.0055968
0.00726509
0.00721883
0.218596
0.00545644
0.00833055
0.0151215
0.007763
0.00643754
0.368691
0.00920533
0.0106776
0.0336734
0.00934968
0.00752248
0.185812
0.0197439
0.00836022
0.00452556
0.0213104
0.00660822
0.294565
0.00806602
0.00768658
0.0070376
0.151341
0.00611696
0.00746064
0.0344667
0.00833656
0.00814519
0.00859551
0.00525498
0.00770801
0.0328591
0.0191461
0.0081459
0.461185
0.0361324
0.00800161
0.0313794
0.0079288
0.00518387
0.0325716
0.00801575
0.00816169
0.00788065
0.00748474
0.00793604
0.00717195
0.00815146
0.051533
0.0363506
0.00616342
0.0393478
0.00691591
0.0203492
0.0190148
0.00855539
0.0066159
0.0159012
0.0048933
0.00674783
0.00589667
0.00667204
0.00683681
0.00794625
0.0378769
0.143916
0.02407
0.0934273
0.00859361
0.0127886
0.354307
0.0165865
0.0130244
0.00759869
0.0336942
0.0386736
0.179301
0.0047465
0.0179883
0.0323534
0.0065791
0.00795599
0.906181
0.00482768
0.0067337
0.0293975
0.0282386
0.00584493
0.012202
0.0146155
0.00457287
0.584637
0.683066
0.00789816
0.0071078
0.0245018
0.0791686
0.0104501
0.008113
0.00672825
0.00839174
0.00752731
0.0799148
0.00761843
0.00846347
0.136057
0.00846521
0.00730516
0.00770468
0.00758086
0.00675471
0.00858201
0.00724445
0.00958312
0.00704358
0.00879419
0.00803292
0.0310896
0.00818389
0.0212453
0.00770024
0.0209414
0.00838588
0.00767725
0.0586879
0.257871
0.0070545
0.00780799
0.00778661
0.0193603
0.00826419
0.00934744
0.00811504
0.00741519
0.00623082
0.00727599
0.0309498
0.00512841
0.0601782
0.00848592
0.00904131
0.00788322
0.00670118
0.00886709
0.0083125
0.00802054
0.187751
0.00755817
0.0164938
0.00789929
0.00799884
0.481799
0.00845128
0.00855212
0.143333
0.242307
0.0141688
0.00755461
0.0199035
0.00788582
0.034676
0.010874
0.0124003
0.0073747
0.0062604
0.0253004
0.00764142
0.0321274
0.00697942
0.0153458
0.0274059
0.00818441
0.00903916
0.00767166
0.139313
0.016246
0.0049936
0.0353911
0.006426
0.00597683
0.00840222
0.0104312
0.0301366
0.00752216
0.00811407
0.0439673
0.00691345
0.00685293
0.00689394
0.00546479
0.00789743
0.0281786
0.0302331
0.00685835
0.0177878
0.00797998
0.00701969
0.00702898
1.06356
0.00990286
0.00747977
0.137308
0.0321515
0.00820488
0.00706266
0.0289714
0.0105764
0.00662792
0.0072452
0.0142021
0.0387858
0.00755249
0.00693822
0.0763939
0.00715299
0.00830103
0.00735914
0.00692917
0.00810373
0.0236129
0.00764251
0.0376553
0.00644188
0.0134073
0.00812866
0.00502984
0.0282139
0.00691347
0.01877
0.00765319
0.00735497
0.0394689
0.0136554
0.00563707
0.00845591
0.00735607
0.25587
0.0078452
0.00695929
1.89106
0.00674749
0.00706347
0.00697718
0.00696503
0.00646753
0.00632341
0.0158434
0.00515407
0.0162847
0.00706355
0.00759919
0.01557
0.00451013
0.00748373
0.00646843
0.00564241
0.00730461
0.358125
0.00856005
0.0253369
0.00749027
0.00689502
0.00587844
0.00732182
0.0124665
0.00795519
0.00721021
0.00672078
0.00756694
0.00837423
0.0366757
0.0211952
0.0114535
0.0107778
0.0436818
0.00679279
0.00757526
0.00746838
0.211111
0.00729783
0.00672159
0.331954
0.00697982
0.262956
0.154834
0.00690306
0.00809984
0.007006
0.00535264
0.00493181
0.00687291
0.0079748
0.0202854
0.0366851
0.00469112
0.0349588
0.00781055
0.0674831
0.0106191
0.933052
0.0107157
0.0116893
0.00488591
0.00828549
0.00688719
0.0248456
0.00790306
0.0110175
0.00522789
0.012914
0.00522646
0.0570816
0.0175788
0.0248208
0.240489
0.00780114
0.334467
0.0101061
0.00649001
0.00601898
0.00876537
0.00840285
0.598615
0.00781219
0.258077
0.30455
0.0050706
0.149594
0.0254359
0.249336
0.00739075
0.00783211
0.00741351
0.00726098
0.00765731
0.00621523
0.00698039
0.0223473
0.0075904
0.246127
0.0162532
0.00764221
0.00818008
0.00998971
0.104919
0.00812891
0.00845954