/*--------------------------------*- C++ -*----------------------------------*\
| =========                 |                                                 |
| \\      /  F ield         | OpenFOAM: The Open Source CFD Toolbox           |
|  \\    /   O peration     | Version:  3.0.1                                 |
|   \\  /    A nd           | Web:      www.OpenFOAM.org                      |
|    \\/     M anipulation  |                                                 |
\*---------------------------------------------------------------------------*/
FoamFile
{
    version     2.0;
    format      ascii;
    class       volVectorField;
    location    "0.000760929";
    object      U;
}
// * * * * * * * * * * * * * * * * * * * * * * * * * * * * * * * * * * * * * //

dimensions      [0 1 -1 0 0 0 0];

internalField   nonuniform List<vector> 
21246
(
(-1.04692 3.00703 -8.37408e-18)
(-0.673628 1.48551 -8.85241e-20)
(0.0228464 0.806927 3.63989e-18)
(0.684232 0.436638 -3.06415e-18)
(1.19478 0.253653 -2.09744e-18)
(1.58283 0.145256 1.81655e-18)
(1.86688 0.0842636 0)
(2.0865 0.0479487 1.81862e-18)
(2.25894 0.0257097 -1.21808e-18)
(2.38887 0.0125241 -6.39403e-19)
(2.48089 0.00789143 6.32349e-19)
(0.59847 4.03184 6.59227e-18)
(0.927362 2.43817 -1.12071e-17)
(0.82888 2.11697 3.44393e-19)
(1.07505 1.53141 2.00004e-19)
(1.36246 1.07106 3.74044e-18)
(1.66359 0.71373 4.13711e-18)
(1.904 0.481544 -2.47862e-18)
(2.10796 0.32579 3.36025e-18)
(2.2745 0.219475 -2.48808e-18)
(2.40262 0.146235 0)
(2.4948 0.101374 2.45355e-18)
(2.0349 3.63059 -4.63659e-18)
(2.51634 2.18894 3.09021e-18)
(2.05793 2.47417 0)
(1.99225 2.01253 0)
(1.9615 1.59572 1.13158e-18)
(2.01643 1.17089 -8.25265e-19)
(2.10927 0.835697 1.1132e-18)
(2.22674 0.586216 3.27702e-18)
(2.34152 0.409682 -3.58092e-18)
(2.44017 0.288941 0)
(2.51954 0.216346 -1.20381e-18)
(2.88724 2.67518 0)
(3.46681 1.65574 2.594e-18)
(3.0644 2.20237 -7.58279e-18)
(2.90351 1.91283 3.61703e-18)
(2.69167 1.70597 3.5187e-18)
(2.54042 1.35972 9.87084e-20)
(2.46381 1.04379 -3.14218e-18)
(2.46087 0.765712 4.54542e-18)
(2.49496 0.55118 -3.35057e-18)
(2.54258 0.39449 1.63313e-18)
(2.59341 0.289484 2.30302e-18)
(3.33269 1.82586 -1.8087e-18)
(3.91083 1.16529 1.38471e-18)
(3.67916 1.70256 8.75378e-19)
(3.54382 1.51471 0)
(3.28521 1.51427 0)
(3.04581 1.28794 0)
(2.85746 1.06964 1.94482e-18)
(2.74931 0.829238 -4.17368e-18)
(2.69768 0.62493 -2.08386e-18)
(2.68181 0.463175 -1.53203e-18)
(2.68128 0.349601 4.44047e-18)
(3.5869 1.14533 -3.64545e-19)
(4.11096 0.735055 0)
(3.96893 1.19736 -6.02873e-19)
(3.904 1.04705 0)
(3.65766 1.18182 0)
(3.41746 1.05675 8.92332e-19)
(3.18996 0.947868 1.64871e-18)
(3.02075 0.777341 0)
(2.90475 0.616191 -1.93373e-18)
(2.83452 0.474207 1.42979e-18)
(2.78811 0.371917 -4.31546e-18)
(3.70914 0.650042 -1.21408e-18)
(4.19201 0.339162 1.34021e-18)
(4.0704 0.742486 -5.72447e-19)
(4.04865 0.648082 5.3442e-19)
(3.84284 0.816502 -9.9987e-19)
(3.63832 0.766258 -9.96884e-20)
(3.41761 0.743912 1.42679e-18)
(3.22996 0.644537 -3.38078e-18)
(3.08069 0.538613 3.52227e-18)
(2.97655 0.430832 -1.33459e-18)
(2.8975 0.351188 -2.01532e-18)
(3.76348 0.318884 3.46848e-19)
(4.17691 0.0291464 0)
(4.07657 0.386452 1.18974e-18)
(4.0627 0.309797 -9.96839e-19)
(3.89703 0.489775 0)
(3.73753 0.481141 7.50581e-19)
(3.54229 0.514624 1.25054e-18)
(3.36292 0.472701 0)
(3.20533 0.419524 0)
(3.08738 0.349888 0)
(2.99148 0.308734 3.92921e-18)
(3.80432 0.0843522 6.38319e-19)
(4.11658 -0.217608 0)
(4.02457 0.116387 3.17003e-19)
(4.01047 0.0362967 -4.92369e-19)
(3.8741 0.218204 -8.99575e-19)
(3.75312 0.229482 -1.76378e-20)
(3.5864 0.294652 -1.8005e-18)
(3.42718 0.293065 -9.83832e-19)
(3.27664 0.281758 1.60979e-18)
(3.15792 0.244586 -2.45523e-18)
(3.06165 0.235237 -1.90891e-18)
(3.80693 -0.120729 -2.19976e-19)
(4.02889 -0.447697 0)
(3.93801 -0.102489 6.34222e-19)
(3.92422 -0.187092 0)
(3.80872 -0.00463647 -4.46616e-19)
(3.71577 0.0169176 1.08554e-18)
(3.57496 0.0995206 -6.10146e-19)
(3.43863 0.124699 4.47214e-19)
(3.3032 0.143991 -2.15701e-20)
(3.19161 0.132585 0)
(3.09672 0.153371 1.85738e-18)
(3.73168 -0.297147 1.23029e-19)
(3.90317 -0.636229 2.16782e-19)
(3.82201 -0.279566 -5.80349e-19)
(3.81472 -0.366879 2.07872e-19)
(3.71765 -0.18616 3.28243e-19)
(3.64461 -0.158022 -3.61216e-19)
(3.52672 -0.0660303 -6.0593e-19)
(3.41199 -0.0231325 -2.5563e-19)
(3.2943 0.0185496 7.41731e-19)
(3.19311 0.0270623 8.79627e-19)
(3.11032 0.0709618 4.53074e-19)
(3.62255 -0.418222 2.92151e-19)
(3.7629 -0.743399 -4.29975e-19)
(3.69198 -0.409968 7.97954e-20)
(3.69149 -0.499617 7.06595e-20)
(3.6111 -0.328919 -5.93702e-20)
(3.55183 -0.297019 -2.47027e-20)
(3.45413 -0.201644 3.71657e-19)
(3.35846 -0.147408 -3.05773e-19)
(3.25884 -0.0909282 1.85445e-19)
(3.16693 -0.0640111 -2.88079e-19)
(3.10308 -0.0148005 -2.15907e-19)
(3.53088 -0.513333 -1.73684e-20)
(3.63616 -0.815158 -4.73385e-19)
(3.56749 -0.513487 3.73762e-19)
(3.56653 -0.595971 1.56345e-19)
(3.49819 -0.439867 2.94442e-20)
(3.44711 -0.404115 -4.76011e-20)
(3.36645 -0.309683 -3.15239e-19)
(3.28689 -0.247614 1.2236e-19)
(3.20543 -0.183461 -4.69735e-20)
(3.12335 -0.137999 0)
(3.07726 -0.0904243 0)
(3.42209 -0.610848 0)
(3.50877 -0.882135 2.55739e-19)
(3.44809 -0.610139 4.03976e-19)
(3.44212 -0.667692 -1.54441e-19)
(3.38354 -0.529123 5.94462e-21)
(3.33689 -0.485029 8.07516e-19)
(3.27027 -0.393839 3.12138e-19)
(3.20403 -0.324469 -5.03489e-19)
(3.13891 -0.256953 7.71578e-19)
(3.06962 -0.192926 -5.91605e-19)
(3.03818 -0.151055 -3.69451e-21)
(3.29307 -0.679363 -6.88116e-21)
(3.38193 -0.911065 2.64136e-19)
(3.32994 -0.68202 -4.02619e-19)
(3.31832 -0.717982 -6.80298e-19)
(3.26773 -0.597414 -5.14274e-19)
(3.22434 -0.544286 4.43426e-19)
(3.16896 -0.45631 1.33564e-18)
(3.11468 -0.38047 1.0373e-18)
(3.06262 -0.310797 0)
(3.00874 -0.229873 0)
(2.98195 -0.199304 -4.52425e-19)
(3.18391 -0.73899 0)
(3.26704 -0.924241 -1.68831e-18)
(3.21563 -0.737957 -8.79298e-21)
(3.19638 -0.752505 1.36446e-18)
(3.15116 -0.647343 -5.4905e-19)
(3.11034 -0.585564 2.20547e-20)
(3.06402 -0.4986 -1.32786e-18)
(3.02122 -0.417475 -1.55831e-18)
(2.98064 -0.346001 8.07256e-19)
(2.94427 -0.25536 -6.04885e-19)
(2.91806 -0.230046 -1.83342e-18)
(3.07411 -0.803074 7.56624e-19)
(3.15024 -0.944849 5.81469e-19)
(3.09921 -0.789063 -1.88755e-18)
(3.07373 -0.77779 2.94035e-18)
(3.03211 -0.682021 -1.15684e-18)
(2.99449 -0.611568 0)
(2.95684 -0.522613 2.86357e-18)
(2.9257 -0.436301 -1.08212e-18)
(2.89757 -0.362144 0)
(2.87927 -0.268223 -2.49967e-18)
(2.85904 -0.240147 1.82666e-18)
(2.95013 -0.848154 -1.60892e-18)
(3.02625 -0.948184 0)
(2.97643 -0.824227 2.00398e-18)
(2.9475 -0.791146 1.61089e-18)
(2.90866 -0.699661 -1.851e-20)
(2.87564 -0.619767 -9.58571e-19)
(2.84829 -0.527127 2.73371e-20)
(2.83053 -0.436293 -3.38838e-18)
(2.81665 -0.359652 -1.87107e-20)
(2.81539 -0.266785 2.50644e-18)
(2.80102 -0.239107 0)
(2.82739 -0.880026 8.70847e-19)
(2.9002 -0.938772 0)
(2.84785 -0.843748 -3.27729e-18)
(2.81618 -0.790297 1.94977e-20)
(2.77974 -0.698648 -5.21346e-20)
(2.75361 -0.607385 4.15377e-18)
(2.74021 -0.509289 -3.13452e-18)
(2.73905 -0.416124 -1.17538e-18)
(2.7416 -0.339692 3.47902e-18)
(2.75639 -0.254292 -3.90403e-18)
(2.75148 -0.224595 0)
(2.70552 -0.901615 0)
(2.76696 -0.926801 0)
(2.70853 -0.85072 2.45206e-18)
(2.67505 -0.772663 -3.79758e-18)
(2.64357 -0.673017 1.42448e-18)
(2.63046 -0.568824 -4.44126e-18)
(2.6371 -0.465634 0)
(2.65658 -0.374533 0)
(2.67729 -0.302919 5.46448e-18)
(2.70654 -0.229803 1.30389e-18)
(2.71052 -0.201579 1.99813e-20)
(2.57437 -0.907126 2.32686e-18)
(2.61216 -0.913421 9.25003e-19)
(2.54813 -0.837928 0)
(2.51927 -0.727906 -2.19227e-18)
(2.50383 -0.612633 4.88022e-18)
(2.51586 -0.497973 4.82076e-18)
(2.55046 -0.396228 -1.81478e-18)
(2.59304 -0.315506 0)
(2.63012 -0.255131 -3.81366e-18)
(2.66846 -0.196935 0)
(2.68227 -0.166791 -1.97614e-18)
(2.42574 -0.905445 2.84599e-18)
(2.41006 -0.877355 -1.06783e-18)
(2.35513 -0.778462 2.48774e-18)
(2.3527 -0.625905 -2.48712e-18)
(2.3751 -0.490725 -8.75521e-19)
(2.42548 -0.375552 -1.38106e-18)
(2.49012 -0.288442 0)
(2.55041 -0.229464 2.80074e-18)
(2.59611 -0.188822 -3.45985e-20)
(2.63644 -0.150761 0)
(2.65308 -0.128104 2.02189e-18)
(2.13372 -0.68772 -1.03879e-17)
(2.10316 -0.767477 5.55257e-18)
(2.13098 -0.583752 1.02454e-18)
(2.20028 -0.426283 6.12561e-18)
(2.29254 -0.31748 -5.53851e-18)
(2.39429 -0.247883 1.55208e-18)
(2.48608 -0.20998 0)
(2.55398 -0.19009 -7.6675e-19)
(2.59844 -0.171928 -1.07345e-18)
(2.63436 -0.146045 0)
(2.65752 -0.1196 1.05338e-18)
(2.02827 -1.12659 4.5891e-18)
(2.04409 -0.68359 -1.29995e-19)
(2.14096 -0.40062 -5.75221e-18)
(2.27264 -0.187054 4.02437e-18)
(2.40132 -0.068706 5.47074e-18)
(2.50626 -0.0279546 8.44678e-20)
(2.57439 -0.0286868 -2.55034e-18)
(2.6046 -0.0383482 1.07197e-18)
(2.61356 -0.0393616 -1.14497e-18)
(2.6238 -0.0337381 2.33364e-19)
(2.64215 -0.0311832 5.84136e-21)
(-0.266081 -4.27752 -8.54378e-18)
(-0.258967 -2.33861 -5.41806e-18)
(0.157771 -1.44051 2.06535e-19)
(0.735755 -0.861557 7.30945e-18)
(1.23123 -0.542992 -4.407e-18)
(1.61227 -0.357857 5.53609e-18)
(1.8873 -0.245413 -4.68731e-18)
(2.09433 -0.175659 -1.3874e-19)
(2.25237 -0.132732 6.33446e-19)
(2.36826 -0.107949 1.50462e-18)
(2.45388 -0.0935488 -6.42706e-19)
(1.42821 -4.76549 6.49116e-18)
(1.57487 -2.90644 7.44396e-18)
(1.29697 -2.69505 5.33022e-18)
(1.37649 -1.99077 -7.9844e-18)
(1.5413 -1.42246 4.97862e-18)
(1.76004 -0.973941 6.9905e-19)
(1.96861 -0.664801 2.31396e-18)
(2.15236 -0.454793 -7.0357e-18)
(2.30618 -0.309671 3.13046e-18)
(2.42764 -0.208793 -1.70953e-18)
(2.51144 -0.152068 5.95596e-19)
(2.70492 -4.03875 -1.42394e-18)
(3.08962 -2.28545 3.72808e-18)
(2.61112 -2.77233 -3.11843e-18)
(2.39707 -2.29723 0)
(2.2342 -1.8497 4.48131e-18)
(2.18015 -1.37911 1.48513e-18)
(2.21815 -0.995439 -2.3928e-18)
(2.30304 -0.702528 0)
(2.4011 -0.501745 2.31266e-18)
(2.49497 -0.367087 -1.1831e-20)
(2.57021 -0.279758 1.12664e-18)
(3.40449 -2.90676 -2.56561e-19)
(3.95808 -1.54889 -7.02049e-19)
(3.59487 -2.29049 0)
(3.32263 -2.04627 -2.91176e-18)
(3.00642 -1.83661 -1.93913e-18)
(2.75042 -1.50219 3.89235e-18)
(2.61115 -1.16212 -1.1293e-19)
(2.56893 -0.848342 0)
(2.5763 -0.612738 0)
(2.60827 -0.44155 0)
(2.64153 -0.330798 -4.4009e-18)
(3.72423 -1.94502 1.6944e-19)
(4.32888 -0.958486 -1.77167e-19)
(4.13756 -1.65396 6.83253e-19)
(3.92187 -1.54084 1.35061e-18)
(3.6002 -1.53655 -1.29059e-18)
(3.2727 -1.36583 9.69598e-19)
(3.02534 -1.13767 -3.53647e-18)
(2.87388 -0.881276 1.13002e-18)
(2.79001 -0.665373 1.94275e-18)
(2.7543 -0.493589 2.78439e-18)
(2.74071 -0.369121 2.11617e-18)
(3.87961 -1.24263 -1.19077e-19)
(4.43315 -0.492408 0)
(4.35347 -1.0852 -1.10144e-19)
(4.20347 -1.01089 -1.67747e-18)
(3.94602 -1.13058 -3.6933e-20)
(3.63532 -1.07574 -1.49945e-18)
(3.36152 -0.968059 0)
(3.15071 -0.79663 -8.60385e-20)
(3.00107 -0.630578 -1.70787e-18)
(2.90976 -0.477278 -2.71159e-18)
(2.85505 -0.358644 6.43423e-20)
(3.95646 -0.722985 1.20292e-19)
(4.41776 -0.119462 -8.08844e-21)
(4.3935 -0.639823 -5.28233e-19)
(4.27453 -0.555515 1.47348e-19)
(4.09431 -0.743103 7.61452e-19)
(3.83301 -0.739178 1.4307e-18)
(3.58128 -0.729425 1.10315e-18)
(3.35739 -0.637759 1.86816e-18)
(3.17505 -0.53294 0)
(3.04262 -0.418077 1.22502e-18)
(2.96246 -0.322923 9.71306e-19)
(3.99806 -0.337303 -1.62535e-19)
(4.35311 0.153857 0)
(4.35027 -0.30343 3.04465e-19)
(4.24337 -0.195129 0)
(4.11303 -0.419745 3.29415e-19)
(3.91119 -0.420548 -2.52055e-19)
(3.69451 -0.48111 4.45816e-19)
(3.48393 -0.44671 -2.15497e-18)
(3.29693 -0.398034 -6.75302e-19)
(3.14559 -0.329983 0)
(3.0399 -0.272525 -8.22045e-19)
(4.0213 -0.0371656 3.22029e-19)
(4.28617 0.362731 0)
(4.25711 -0.0495459 -2.96472e-19)
(4.182 0.0904723 2.39815e-19)
(4.06215 -0.15506 6.48737e-20)
(3.91311 -0.154113 5.14578e-19)
(3.72852 -0.246948 -4.6317e-19)
(3.54099 -0.250889 3.45218e-20)
(3.36451 -0.246515 9.53997e-19)
(3.21623 -0.214126 0)
(3.10537 -0.18333 1.6684e-18)
(4.03019 0.175155 -1.01054e-19)
(4.22241 0.551178 0)
(4.14754 0.164459 0)
(4.10553 0.301799 -3.09334e-19)
(3.98593 0.0726648 0)
(3.86908 0.0680892 -5.01736e-19)
(3.70959 -0.0384304 -4.35135e-19)
(3.54653 -0.0668519 3.71746e-19)
(3.38607 -0.0954987 -6.32374e-19)
(3.24575 -0.0970843 -5.13205e-19)
(3.15264 -0.0883637 -3.97168e-19)
(4.0038 0.346885 1.25849e-19)
(4.13602 0.732861 -2.09959e-19)
(4.04247 0.352261 1.65597e-19)
(4.01106 0.479828 1.68766e-19)
(3.89576 0.268541 -1.28172e-19)
(3.7984 0.256515 -5.74721e-20)
(3.6569 0.143916 5.36493e-19)
(3.51522 0.098396 -3.66668e-19)
(3.37315 0.0480456 0)
(3.2393 0.0146122 2.43181e-19)
(3.16301 0.0144218 9.61742e-19)
(3.94165 0.486666 -2.73246e-20)
(4.0309 0.880903 2.84453e-19)
(3.93212 0.516562 -1.79027e-19)
(3.90509 0.632963 1.75768e-19)
(3.79434 0.43882 -6.64712e-20)
(3.709 0.417613 0)
(3.58127 0.302749 -1.03756e-19)
(3.45671 0.242221 -8.62546e-20)
(3.33368 0.179471 7.7168e-20)
(3.21028 0.114463 -5.41287e-19)
(3.13557 0.127682 -1.8946e-19)
(3.8678 0.614494 -2.9937e-19)
(3.91813 1.00937 -2.32679e-19)
(3.81701 0.665506 3.90664e-19)
(3.78925 0.76433 0)
(3.68285 0.589078 -3.18526e-19)
(3.60311 0.554571 2.47662e-19)
(3.48731 0.440618 3.38797e-19)
(3.37687 0.364235 -1.75995e-19)
(3.2695 0.291658 0)
(3.16496 0.201591 2.40088e-19)
(3.08217 0.180111 7.57337e-19)
(3.7661 0.747104 5.76378e-19)
(3.79182 1.12878 6.66403e-19)
(3.69588 0.810622 -4.25401e-19)
(3.66179 0.877413 0)
(3.56126 0.723547 0)
(3.48232 0.670369 0)
(3.37741 0.558003 4.71352e-19)
(3.27928 0.466749 -7.74117e-19)
(3.18488 0.382652 0)
(3.09584 0.279023 -9.84936e-19)
(3.03056 0.230684 -7.51524e-19)
(3.63663 0.863618 0)
(3.65507 1.22378 -9.0647e-19)
(3.56611 0.940357 4.68959e-19)
(3.52279 0.976006 0)
(3.42813 0.840404 0)
(3.34825 0.768245 0)
(3.253 0.654541 -1.46752e-18)
(3.16618 0.549082 -3.61313e-20)
(3.0855 0.455388 0)
(3.01084 0.332594 -2.83603e-20)
(2.97733 0.287393 0)
(3.50134 0.971483 1.14012e-18)
(3.51257 1.30523 3.13396e-19)
(3.42713 1.05551 0)
(3.372 1.06254 1.88277e-18)
(3.28161 0.939057 -7.36712e-19)
(3.20071 0.848904 4.16218e-20)
(3.11442 0.72954 5.03648e-19)
(3.03969 0.609677 8.12461e-19)
(2.97397 0.50688 0)
(2.92404 0.365552 1.00993e-18)
(2.89213 0.334339 7.89267e-19)
(3.35672 1.07592 -2.54063e-21)
(3.35941 1.38333 7.75139e-19)
(3.27498 1.16034 0)
(3.20724 1.1392 8.42786e-20)
(3.11891 1.01975 1.67578e-18)
(3.03809 0.911238 1.41128e-18)
(2.96131 0.780912 -1.08232e-18)
(2.90175 0.646201 -1.82674e-18)
(2.85421 0.530758 0)
(2.83403 0.384762 1.094e-18)
(2.80267 0.331495 -8.41387e-19)
(3.19587 1.16964 -4.9049e-20)
(3.18974 1.45239 -1.68227e-18)
(3.10437 1.25236 6.70791e-19)
(3.02427 1.20377 7.71552e-20)
(2.93608 1.08013 -4.70096e-18)
(2.85776 0.950894 -1.07478e-19)
(2.7939 0.804095 0)
(2.75465 0.654291 1.86009e-18)
(2.73147 0.525133 -1.50576e-18)
(2.73924 0.384608 7.8476e-20)
(2.72816 0.314445 1.64817e-18)
(3.01973 1.24999 -6.69118e-19)
(2.99994 1.5106 1.99954e-18)
(2.91002 1.32915 8.10858e-19)
(2.81768 1.25117 1.45541e-18)
(2.72874 1.11389 -1.02931e-20)
(2.65779 0.959568 -1.35221e-19)
(2.61422 0.791729 0)
(2.60313 0.627538 0)
(2.61211 0.488083 1.53829e-18)
(2.649 0.355542 -4.66024e-18)
(2.66467 0.279974 3.44042e-21)
(2.82386 1.31378 0)
(2.78078 1.55953 1.1645e-19)
(2.68239 1.38601 9.21198e-19)
(2.57947 1.2711 -3.07173e-18)
(2.49302 1.10772 1.20381e-18)
(2.43911 0.92293 -1.56222e-19)
(2.42741 0.732617 0)
(2.45453 0.558275 4.62491e-18)
(2.50234 0.416818 -3.38151e-18)
(2.56759 0.299382 3.75423e-18)
(2.61139 0.221736 0)
(2.596 1.35111 0)
(2.51567 1.59574 -1.44804e-18)
(2.4085 1.41056 -1.19136e-18)
(2.30525 1.24552 1.83885e-18)
(2.23624 1.04376 -3.00437e-18)
(2.2175 0.828317 5.62269e-18)
(2.25266 0.623435 0)
(2.3275 0.450658 -4.98158e-18)
(2.41712 0.319872 -1.25e-20)
(2.50762 0.225346 2.21964e-20)
(2.57388 0.161811 -3.79204e-18)
(2.30429 1.31835 -6.86658e-19)
(2.17529 1.58506 0)
(2.07013 1.34571 -6.53126e-19)
(1.99549 1.11044 0)
(1.97551 0.865933 0)
(2.01399 0.629216 -2.71325e-18)
(2.10372 0.423756 0)
(2.22472 0.267635 1.42792e-18)
(2.35116 0.164917 9.63675e-19)
(2.4647 0.106552 2.7946e-18)
(2.56016 0.0708863 -9.9644e-19)
(1.93288 1.2962 1.47445e-18)
(1.73993 1.48449 0)
(1.68014 1.20077 -5.06002e-18)
(1.69045 0.913161 -3.38403e-18)
(1.76767 0.653673 4.12987e-18)
(1.89479 0.43508 2.46225e-18)
(2.05165 0.263569 0)
(2.21744 0.145287 -1.58055e-18)
(2.3721 0.0765467 1.09439e-18)
(2.49678 0.0451799 7.65366e-19)
(2.592 0.0305794 5.28516e-19)
(1.60352 0.618051 -6.04918e-19)
(1.42205 1.14157 1.60932e-19)
(1.58643 0.607332 -7.96044e-19)
(1.75938 0.276905 4.41068e-18)
(1.95483 0.0544897 -2.47709e-18)
(2.14951 -0.0935889 -1.24014e-18)
(2.31127 -0.179588 0)
(2.42819 -0.214004 -1.99773e-18)
(2.50744 -0.204624 1.23366e-18)
(2.56423 -0.165406 -1.0338e-18)
(2.61781 -0.11187 -3.84084e-21)
(8.63145 -0.522096 -2.97084e-18)
(6.12508 -1.25541 4.0593e-19)
(6.41788 -0.824372 -2.51402e-19)
(6.14376 -0.73324 9.21085e-20)
(5.59728 -0.696548 -9.18606e-19)
(4.99511 -0.605786 2.30078e-18)
(4.48387 -0.498223 -1.83475e-19)
(4.09937 -0.40275 -2.31027e-20)
(3.79345 -0.319512 -4.39379e-18)
(3.55039 -0.251838 -9.45466e-20)
(3.38144 -0.205498 1.72356e-18)
(5.07647 -1.08304 2.81137e-18)
(3.31068 -2.26993 -1.84361e-18)
(4.54733 -2.27654 7.66052e-19)
(4.97139 -2.1667 2.23653e-19)
(4.98009 -1.9745 -3.84851e-19)
(4.72107 -1.63232 2.35745e-18)
(4.32774 -1.20616 2.67286e-19)
(3.97991 -0.886437 -9.19737e-19)
(3.70596 -0.668891 1.45446e-18)
(3.48015 -0.501344 -2.13544e-18)
(3.31878 -0.380089 0)
(2.16304 -0.0897438 -4.1774e-18)
(1.68984 -1.85158 -7.44298e-19)
(2.70374 -2.53202 -1.76512e-18)
(3.30491 -2.78072 -5.75927e-19)
(3.72326 -2.76941 2.25563e-19)
(3.88715 -2.4382 0)
(3.82736 -1.87842 -7.62927e-19)
(3.67313 -1.38106 5.71325e-19)
(3.48848 -1.01163 -1.23885e-18)
(3.32072 -0.747603 1.911e-18)
(3.21157 -0.53284 7.27071e-20)
(0.765102 0.601475 6.31899e-20)
(0.824102 -1.18511 5.11472e-19)
(1.3302 -2.11138 2.10685e-19)
(1.82639 -2.66835 9.39818e-20)
(2.37579 -2.91764 -9.62617e-20)
(2.80252 -2.73727 1.41561e-20)
(3.05269 -2.23185 0)
(3.15141 -1.712 4.67039e-19)
(3.14254 -1.28386 9.27456e-19)
(3.07562 -0.954721 0)
(3.0573 -0.669542 1.41919e-18)
(0.251985 0.642586 -6.02673e-19)
(0.355377 -0.702459 9.81821e-19)
(0.474225 -1.50285 -6.14556e-19)
(0.810853 -2.16428 5.277e-19)
(1.31405 -2.5608 -3.03536e-19)
(1.82618 -2.53531 7.41909e-20)
(2.25661 -2.1962 -1.965e-19)
(2.54713 -1.78496 -5.76299e-19)
(2.7105 -1.39185 -1.08306e-18)
(2.76797 -1.05991 7.3403e-19)
(2.86235 -0.764597 0)
(0.0481672 0.489275 5.56466e-19)
(0.0870076 -0.387607 -6.28888e-19)
(0.0517052 -0.964102 6.71184e-19)
(0.252895 -1.53263 -4.81171e-19)
(0.664884 -1.94082 1.9046e-19)
(1.14806 -2.02396 0)
(1.62229 -1.87321 2.14639e-19)
(2.00226 -1.62068 2.66624e-19)
(2.28056 -1.32386 2.6643e-20)
(2.44509 -1.03748 -5.79515e-19)
(2.61678 -0.777236 -1.39349e-19)
(-0.0701571 0.404159 2.57532e-20)
(-0.0590706 -0.139529 -1.25755e-20)
(-0.0857372 -0.527689 -1.23059e-21)
(0.0448645 -0.94394 0)
(0.371224 -1.28049 -7.83211e-21)
(0.774712 -1.42353 5.05732e-20)
(1.20705 -1.41703 5.72756e-20)
(1.59611 -1.30548 1.44645e-19)
(1.92383 -1.12025 2.90984e-20)
(2.15644 -0.908822 -1.70501e-19)
(2.37998 -0.706008 7.87489e-19)
(-0.114091 0.426097 -6.28738e-19)
(-0.0880327 0.0874845 4.4879e-20)
(-0.0602296 -0.16712 -1.1978e-20)
(0.0423552 -0.44811 -4.48873e-20)
(0.303282 -0.704049 -3.43503e-19)
(0.621654 -0.868206 3.74488e-19)
(0.983758 -0.943526 0)
(1.34164 -0.928818 5.90028e-19)
(1.67261 -0.839751 -5.58837e-19)
(1.934 -0.709467 1.9073e-19)
(2.18308 -0.576829 -4.76271e-19)
(-0.0916694 0.526066 -9.96267e-19)
(-0.0410309 0.315412 -7.65804e-19)
(0.0341989 0.149075 5.97705e-19)
(0.135331 -0.0402944 1.18817e-20)
(0.348374 -0.237074 -1.1388e-19)
(0.599704 -0.397771 1.81846e-20)
(0.897782 -0.507242 -6.1822e-19)
(1.21395 -0.549173 2.01694e-19)
(1.52511 -0.530723 2.21766e-19)
(1.79264 -0.470593 3.62161e-19)
(2.03774 -0.401821 -6.62719e-19)
(-0.0249481 0.692196 -1.08417e-18)
(0.0396195 0.561637 8.54261e-19)
(0.147863 0.442709 -2.14994e-19)
(0.258218 0.3033 0)
(0.438962 0.143868 3.84262e-19)
(0.647494 -0.00397479 8.46795e-19)
(0.899853 -0.12237 -2.87301e-19)
(1.17828 -0.195026 2.62436e-19)
(1.46124 -0.224576 -2.18849e-19)
(1.72048 -0.218678 -3.57932e-19)
(1.95652 -0.196718 0)
(0.089075 0.910349 -3.62148e-19)
(0.155504 0.820771 1.31879e-19)
(0.276404 0.719736 4.52023e-19)
(0.39003 0.604341 3.86239e-19)
(0.550089 0.466514 9.11519e-19)
(0.735029 0.331711 -1.85516e-18)
(0.958565 0.213855 3.75222e-19)
(1.20729 0.123758 1.23979e-18)
(1.46285 0.0612248 -1.93537e-18)
(1.70467 0.0247086 0)
(1.93328 0.00203855 1.22921e-18)
(0.241229 1.13369 -3.05271e-18)
(0.303406 1.06562 -3.58571e-19)
(0.421866 0.971633 1.75795e-18)
(0.530898 0.871347 -3.74657e-19)
(0.679045 0.748566 -1.94853e-18)
(0.852289 0.625518 1.52384e-18)
(1.05778 0.51025 0)
(1.28406 0.408675 -1.31602e-18)
(1.51726 0.322035 1.98333e-18)
(1.7422 0.251625 -1.63073e-18)
(1.96108 0.190761 1.21208e-18)
(0.3995 1.33243 -3.48176e-18)
(0.453249 1.28993 3.39483e-18)
(0.571705 1.19884 0)
(0.679093 1.11149 0)
(0.824619 1.00095 6.51675e-19)
(0.992862 0.8879 -1.62085e-18)
(1.1867 0.774403 8.48224e-19)
(1.39678 0.663721 0)
(1.61274 0.558142 6.16546e-21)
(1.82072 0.461854 -8.7696e-19)
(2.02905 0.373925 -4.31735e-20)
(0.558967 1.52171 -1.35567e-18)
(0.59868 1.50704 -3.49091e-19)
(0.725083 1.41139 0)
(0.83497 1.33415 0)
(0.983399 1.23234 7.31347e-19)
(1.14973 1.1264 0)
(1.33721 1.01261 0)
(1.53732 0.892918 0)
(1.74086 0.769709 3.92214e-20)
(1.93051 0.649889 -9.01528e-19)
(2.12989 0.528 0)
(0.733312 1.69767 1.4747e-18)
(0.757196 1.7087 -3.75697e-18)
(0.890654 1.60873 2.97249e-18)
(1.00093 1.54238 -4.69268e-18)
(1.15339 1.44737 -7.60978e-19)
(1.3204 1.3467 1.17646e-18)
(1.50717 1.23084 -9.51807e-19)
(1.70405 1.1004 -1.49284e-18)
(1.90148 0.956668 1.12689e-18)
(2.07537 0.811769 1.73348e-18)
(2.27289 0.644425 0)
(0.903853 1.85249 -5.01723e-19)
(0.918619 1.89325 -1.45183e-20)
(1.06203 1.79281 1.24697e-18)
(1.17258 1.73917 1.05988e-20)
(1.33036 1.65166 7.84115e-19)
(1.50306 1.55669 1.26872e-18)
(1.69702 1.43689 -1.92906e-18)
(1.89826 1.29192 0)
(2.09377 1.12279 1.19563e-18)
(2.25312 0.949146 -1.78222e-18)
(2.42612 0.749812 -1.39148e-18)
(1.06931 2.00199 5.14834e-19)
(1.07853 2.06942 8.08518e-19)
(1.2331 1.96998 3.15676e-18)
(1.34532 1.93031 -2.95757e-18)
(1.51122 1.85442 7.85799e-19)
(1.69731 1.76771 0)
(1.91083 1.64108 2.99427e-18)
(2.12592 1.47287 -1.52801e-18)
(2.32262 1.26587 -2.51395e-20)
(2.46014 1.05317 2.80048e-21)
(2.60769 0.812943 3.71386e-20)
(1.23776 2.14912 0)
(1.24275 2.23111 4.13791e-19)
(1.40036 2.13898 0)
(1.51395 2.11922 -2.03089e-18)
(1.69413 2.06574 1.57851e-18)
(1.90991 1.9945 6.25388e-19)
(2.16181 1.85663 0)
(2.40257 1.64679 8.00838e-19)
(2.60063 1.37821 -3.06463e-20)
(2.70664 1.11777 8.93847e-19)
(2.83386 0.806652 -1.46892e-18)
(1.39832 2.29096 4.50389e-18)
(1.40225 2.37383 -3.8584e-18)
(1.55313 2.30094 -3.16317e-19)
(1.67168 2.31638 0)
(1.88196 2.30284 1.62369e-18)
(2.16029 2.25107 1.34395e-18)
(2.47828 2.08647 -1.98979e-18)
(2.75347 1.80611 -8.17368e-19)
(2.93787 1.44986 -1.31329e-18)
(2.99242 1.12998 9.6916e-19)
(3.0387 0.788122 2.22473e-18)
(1.55144 2.43058 4.54866e-18)
(1.55198 2.51199 -3.51444e-18)
(1.66883 2.47326 5.65814e-18)
(1.77798 2.54463 -4.11187e-18)
(2.03398 2.57844 1.7854e-18)
(2.43025 2.52446 6.92767e-19)
(2.87567 2.28556 -3.24103e-18)
(3.19845 1.89331 1.65362e-18)
(3.33428 1.43244 -1.03876e-18)
(3.30597 1.05412 1.01255e-18)
(3.25597 0.666078 -3.71343e-19)
(1.80205 2.59905 1.90236e-19)
(1.46782 2.73208 6.27481e-20)
(1.52675 2.6721 4.24413e-20)
(1.72501 2.96891 2.12627e-18)
(2.28504 3.01097 -2.15437e-19)
(3.06967 2.85965 0)
(3.61902 2.37316 1.1595e-18)
(3.83873 1.77829 1.03771e-18)
(3.80463 1.22051 -1.73591e-18)
(3.61717 0.846607 -1.08706e-18)
(3.42491 0.528965 3.99168e-19)
(1.27695 2.5803 5.50471e-21)
(0.703897 2.68449 0)
(1.76988 2.897 -2.37395e-18)
(2.36974 3.5131 1.70389e-18)
(3.4771 3.05108 -1.59111e-18)
(4.16549 2.63287 1.04045e-18)
(4.53581 1.97364 0)
(4.50049 1.31474 0)
(4.20877 0.786588 3.91479e-19)
(3.86914 0.479325 -1.78822e-20)
(3.54707 0.225524 0)
(-0.119164 1.98077 -4.18249e-18)
(1.82025 1.5628 5.01341e-18)
(2.31644 2.14055 -1.64052e-18)
(3.22115 1.45912 1.1771e-18)
(4.00083 1.08135 -1.90619e-18)
(4.6299 0.826647 -4.21143e-19)
(4.93572 0.56537 3.92618e-19)
(4.79011 0.303265 2.17613e-18)
(4.35988 0.109754 -1.57811e-18)
(3.92839 0.0393862 -7.69451e-20)
(3.58547 0.0749989 9.19996e-19)
(1.59844 -1.13717 0)
(1.40088 -0.716734 -5.85879e-19)
(2.10117 -1.2594 0)
(2.84189 -1.65639 2.63227e-18)
(3.46311 -1.70513 -7.69983e-19)
(3.98309 -1.51704 1.04686e-18)
(4.31512 -1.20362 -7.59109e-19)
(4.30752 -0.864605 6.87507e-20)
(4.02041 -0.578022 9.41735e-19)
(3.69343 -0.351327 -2.78812e-18)
(3.43276 -0.223656 -3.95685e-18)
(8.26159 3.20066 4.05227e-20)
(7.02872 2.81172 -5.78694e-19)
(6.50679 1.77659 7.92022e-19)
(6.00918 1.05517 -2.35271e-19)
(5.48748 0.571041 5.59049e-19)
(4.9686 0.279526 -4.30383e-19)
(4.50747 0.123329 -9.93421e-19)
(4.12841 0.0488693 1.53953e-18)
(3.81703 0.0140473 0)
(3.56731 0.00176533 0)
(3.39086 -0.0107193 -1.83687e-18)
(4.00824 4.80831 9.82282e-18)
(4.5365 4.25022 5.33728e-18)
(4.95032 3.40411 -3.84724e-18)
(5.11812 2.53407 0)
(5.04338 1.77869 1.55959e-18)
(4.78637 1.19728 -6.89623e-19)
(4.44574 0.78642 -8.7182e-19)
(4.10676 0.519604 9.89134e-19)
(3.81049 0.348966 -2.32499e-19)
(3.57039 0.238174 -3.33376e-19)
(3.39499 0.174142 7.33992e-19)
(1.66803 4.22002 1.04865e-17)
(2.67065 4.11653 1.33314e-17)
(3.34878 3.79702 -8.22232e-19)
(3.886 3.23796 -6.13777e-18)
(4.19504 2.57757 -6.61694e-20)
(4.25988 1.93198 5.5149e-19)
(4.13509 1.38412 0)
(3.91824 0.972829 7.20023e-19)
(3.69251 0.682019 -1.01643e-18)
(3.49826 0.476887 -7.85653e-19)
(3.34685 0.333606 1.87282e-20)
(0.71009 3.27819 0)
(1.48373 3.42821 -4.90786e-19)
(2.13631 3.46647 0)
(2.7461 3.26013 6.20372e-18)
(3.24046 2.85505 -4.41435e-18)
(3.54063 2.33274 9.04346e-20)
(3.63489 1.7932 2.65474e-18)
(3.58232 1.33053 -4.50796e-18)
(3.46743 0.974897 3.683e-18)
(3.34582 0.711882 -2.15827e-18)
(3.24186 0.530916 0)
(0.4515 2.66682 6.71592e-18)
(0.967989 2.78744 -1.002e-18)
(1.39048 2.91458 0)
(1.91426 2.92156 -3.61393e-19)
(2.42659 2.74169 1.05099e-18)
(2.82653 2.39315 3.00967e-18)
(3.06862 1.95114 -3.94691e-18)
(3.16629 1.52086 3.04749e-18)
(3.17046 1.15753 -1.71616e-18)
(3.12337 0.867625 2.26996e-18)
(3.06431 0.652449 -1.06765e-18)
(0.371591 2.16483 8.41397e-19)
(0.76446 2.28396 1.10132e-17)
(1.04307 2.41004 1.69107e-18)
(1.40453 2.46001 -4.06111e-18)
(1.82448 2.40095 9.63493e-19)
(2.23197 2.20595 -3.05417e-18)
(2.55537 1.89195 -3.22196e-18)
(2.75507 1.54096 4.81522e-18)
(2.85734 1.21225 2.15918e-18)
(2.89062 0.921728 -7.65991e-18)
(2.90007 0.714648 3.1993e-18)
(0.364669 1.74816 0)
(0.673201 1.85161 -8.66518e-18)
(0.878085 1.95635 -1.64917e-18)
(1.14679 2.01497 3.67514e-18)
(1.46664 1.99592 5.22207e-20)
(1.79633 1.87749 0)
(2.10503 1.6721 -2.12435e-18)
(2.36287 1.43462 -1.54129e-18)
(2.5424 1.18054 2.15346e-18)
(2.65392 0.922846 -5.66969e-20)
(2.7104 0.721875 2.14127e-18)
(0.376728 1.3989 -5.08567e-18)
(0.629773 1.48444 -3.91629e-18)
(0.792165 1.55774 5.87076e-18)
(1.00684 1.60423 0)
(1.27 1.60275 5.90229e-20)
(1.55082 1.54235 0)
(1.82841 1.42161 3.48299e-20)
(2.07403 1.265 -5.91275e-18)
(2.27294 1.0874 2.19707e-18)
(2.42497 0.898382 3.00456e-18)
(2.53456 0.724267 -7.33726e-20)
(0.394529 1.09458 0)
(0.607924 1.16396 0)
(0.743544 1.21682 -1.32462e-18)
(0.92572 1.24893 -6.27256e-18)
(1.1485 1.25176 4.96289e-18)
(1.39007 1.22136 0)
(1.64007 1.1514 1.95306e-18)
(1.87715 1.04996 5.71971e-20)
(2.08396 0.922438 6.68129e-20)
(2.25979 0.764854 -1.4523e-18)
(2.39711 0.602573 0)
(0.404092 0.827385 -4.20045e-18)
(0.601354 0.878498 4.82821e-18)
(0.72363 0.91697 4.6598e-20)
(0.88075 0.941894 2.00424e-18)
(1.07558 0.946376 -3.08783e-18)
(1.28821 0.932336 1.12284e-20)
(1.51297 0.891879 3.50842e-20)
(1.73491 0.826664 0)
(1.93909 0.741596 1.98686e-18)
(2.12617 0.636096 -1.44839e-18)
(2.27588 0.517802 0)
(0.423199 0.589009 0)
(0.615054 0.623393 -5.39789e-20)
(0.720995 0.651036 5.93305e-18)
(0.862292 0.669647 -3.70437e-18)
(1.03629 0.675272 2.92429e-18)
(1.2277 0.670732 -3.55675e-20)
(1.43251 0.648491 5.16061e-20)
(1.64045 0.607582 -2.60042e-18)
(1.84014 0.55131 1.95875e-18)
(2.0304 0.486885 2.85098e-18)
(2.20488 0.417808 0)
(0.446393 0.377902 1.60699e-20)
(0.637714 0.393369 -3.61768e-18)
(0.729351 0.413645 0)
(0.861943 0.42468 -8.6885e-19)
(1.02115 0.429774 0)
(1.19752 0.430216 1.02943e-18)
(1.38761 0.419725 -1.61803e-18)
(1.58379 0.397177 -2.48155e-18)
(1.77688 0.364009 -3.70612e-18)
(1.96226 0.327945 4.10846e-18)
(2.14056 0.302934 3.4453e-21)
(0.469851 0.180283 2.6517e-18)
(0.668615 0.17881 -6.87368e-18)
(0.745813 0.196017 2.1448e-18)
(0.874465 0.199876 8.60765e-19)
(1.02364 0.203239 0)
(1.19028 0.2056 2.04786e-18)
(1.37111 0.202541 2.28354e-20)
(1.56012 0.193853 2.45783e-18)
(1.74908 0.180579 3.62302e-18)
(1.9318 0.163846 -1.37243e-18)
(2.09526 0.141653 2.91823e-18)
(0.50221 -0.000681035 -2.09992e-18)
(0.712157 -0.0224258 6.75984e-19)
(0.770272 -0.00687281 5.12349e-19)
(0.89731 -0.0103498 -3.2841e-18)
(1.03944 -0.0100507 5.15742e-18)
(1.20075 -0.00808416 -4.02026e-18)
(1.37742 -0.00673406 -1.54483e-18)
(1.56441 -0.00526305 1.17688e-18)
(1.7549 -0.00285993 -4.40153e-18)
(1.94205 0.00179081 1.55836e-20)
(2.11386 0.0136239 1.56136e-20)
(0.534863 -0.164017 2.89875e-18)
(0.753971 -0.208601 -2.59252e-18)
(0.797113 -0.197552 -5.15951e-19)
(0.926529 -0.210335 0)
(1.06509 -0.215221 3.09728e-19)
(1.22551 -0.215674 2.95215e-18)
(1.40273 -0.211777 -5.48756e-22)
(1.59109 -0.201363 -5.68231e-19)
(1.78194 -0.183332 -8.53907e-19)
(1.96763 -0.158613 6.48913e-19)
(2.13073 -0.121227 1.78554e-20)
(0.567148 -0.325577 -3.29145e-18)
(0.795056 -0.388906 2.56948e-18)
(0.826428 -0.382951 0)
(0.960342 -0.406294 -1.67589e-18)
(1.09858 -0.418351 3.47048e-18)
(1.26301 -0.422826 -1.91727e-18)
(1.44629 -0.416907 -1.47569e-18)
(1.64132 -0.396569 1.68911e-18)
(1.83707 -0.360445 -8.51735e-19)
(2.02468 -0.311174 7.85501e-19)
(2.18688 -0.249094 9.25789e-19)
(0.604987 -0.487164 0)
(0.836546 -0.565459 1.59458e-19)
(0.86073 -0.567583 -2.4709e-19)
(0.997955 -0.603311 -1.2753e-18)
(1.13877 -0.625883 1.14332e-18)
(1.31341 -0.636565 0)
(1.51025 -0.627766 0)
(1.71824 -0.59365 2.72767e-19)