/*--------------------------------*- C++ -*----------------------------------*\
| =========                 |                                                 |
| \\      /  F ield         | OpenFOAM: The Open Source CFD Toolbox           |
|  \\    /   O peration     | Version:  3.0.1                                 |
|   \\  /    A nd           | Web:      www.OpenFOAM.org                      |
|    \\/     M anipulation  |                                                 |
\*---------------------------------------------------------------------------*/
FoamFile
{
    version     2.0;
    format      ascii;
    class       surfaceVectorField;
    location    "0.882463";
    object      Uf;
}
// * * * * * * * * * * * * * * * * * * * * * * * * * * * * * * * * * * * * * //

dimensions      [0 1 -1 0 0 0 0];

internalField   nonuniform List<vector> 
32369
(
(5.74972 -1.23982 -1.95015e-19)
(5.34911 -1.741 -1.70194e-20)
(5.97083 -0.508706 5.35802e-19)
(5.35446 -1.08746 -3.6702e-19)
(5.19972 -1.56879 2.32901e-20)
(5.27853 -0.656675 -2.74028e-19)
(5.13542 -0.932531 -1.90241e-19)
(5.06643 -1.33996 -3.28842e-19)
(5.1226 -0.69918 -4.97465e-19)
(4.94546 -0.776946 2.81366e-19)
(4.92905 -1.11437 2.0193e-19)
(5.04672 -0.626141 1.64195e-19)
(4.75347 -0.640044 5.46554e-20)
(4.77546 -0.916238 4.55099e-20)
(4.90233 -0.525305 5.03247e-20)
(4.56686 -0.528458 0)
(4.60884 -0.752271 2.20821e-19)
(4.71091 -0.431566 0)
(4.39044 -0.43902 7.46427e-20)
(4.44032 -0.621286 -2.43538e-19)
(4.51361 -0.350943 -6.34335e-20)
(4.2225 -0.367962 2.0013e-19)
(4.27643 -0.517674 -1.01327e-19)
(4.32906 -0.285337 7.16941e-22)
(4.06342 -0.314651 2.6742e-19)
(4.11851 -0.436111 1.66304e-19)
(4.15245 -0.234454 1.40005e-19)
(3.91284 -0.277855 8.91803e-20)
(3.9682 -0.375425 4.49904e-20)
(3.98824 -0.200044 8.05993e-20)
(3.83003 -0.343383 -2.61411e-19)
(3.84156 -0.189347 -3.18083e-20)
(3.75391 -0.269478 -7.29488e-20)
(4.87258 -2.20223 3.45557e-19)
(4.30004 -2.43187 -1.5644e-18)
(4.88646 -1.83492 3.19959e-19)
(4.54274 -2.12744 5.99169e-19)
(4.84944 -1.52014 1.17563e-19)
(4.64001 -1.85208 -2.86791e-19)
(4.76236 -1.25188 7.23322e-21)
(4.64926 -1.56918 2.18609e-20)
(4.63804 -1.02859 1.84537e-19)
(4.59214 -1.31152 9.97468e-20)
(4.4923 -0.848309 2.86544e-20)
(4.48972 -1.08997 2.66982e-19)
(4.33894 -0.705468 -4.33456e-19)
(4.36146 -0.906987 -1.17881e-19)
(4.18597 -0.593401 -2.1006e-19)
(4.22201 -0.759326 -1.15161e-19)
(4.03731 -0.506736 -8.65814e-20)
(4.07977 -0.641473 -7.91591e-20)
(3.89524 -0.441435 -2.44326e-19)
(3.93994 -0.550572 -2.23121e-19)
(3.80972 -0.492242 8.62516e-20)
(3.75023 -0.402584 -5.52134e-19)
(4.09867 -2.4038 -1.35889e-18)
(3.61502 -2.51969 -1.53732e-18)
(4.32785 -2.18795 1.47847e-19)
(3.93214 -2.30191 -1.0249e-19)
(4.44134 -1.92371 -3.59601e-19)
(4.14189 -2.12398 1.19359e-19)
(4.47428 -1.65158 1.06625e-19)
(4.27053 -1.88921 4.54116e-19)
(4.44106 -1.39396 1.24351e-19)
(4.31409 -1.63766 8.3164e-20)
(4.35998 -1.16688 1.65546e-19)
(4.29223 -1.39605 -1.95375e-19)
(4.24936 -0.976638 2.77968e-19)
(4.22322 -1.18081 2.06813e-19)
(4.12444 -0.82201 4.51715e-20)
(4.1243 -0.998129 9.08275e-20)
(3.9954 -0.698103 -2.08126e-19)
(4.00918 -0.848434 -1.65189e-20)
(3.86768 -0.603137 6.40383e-20)
(3.89031 -0.727538 6.15561e-21)
(3.77388 -0.639087 3.18259e-19)
(3.73084 -0.538606 2.5709e-20)
(3.54782 -2.36087 -4.51144e-19)
(3.26641 -2.43268 0)
(3.7869 -2.275 -7.80974e-20)
(3.51069 -2.28969 -4.97967e-19)
(3.99445 -2.11457 8.66442e-19)
(3.70267 -2.20896 -2.89339e-19)
(4.12627 -1.89918 4.16783e-19)
(3.87361 -2.05334 9.41249e-19)
(4.17763 -1.66261 -2.05033e-19)
(3.98895 -1.85171 -1.02024e-20)
(4.16708 -1.4307 -1.88118e-19)
(4.03774 -1.63054 -8.63716e-22)
(4.11179 -1.21955 3.48488e-20)
(4.0294 -1.41247 3.75149e-20)
(4.02543 -1.03852 3.58619e-20)
(3.98045 -1.21211 -2.78003e-20)
(3.91992 -0.890516 1.8621e-19)
(3.90397 -1.03682 1.06844e-20)
(3.80865 -0.769373 2.25713e-19)
(3.80939 -0.890197 1.25557e-19)
(3.70915 -0.77561 2.98256e-21)
(3.69065 -0.67283 9.61473e-20)
(3.26622 -2.29222 0)
(3.08059 -2.33509 4.57457e-19)
(3.42246 -2.25935 -6.38949e-19)
(3.26349 -2.22003 -5.63717e-21)
(3.58843 -2.17029 -2.78859e-19)
(3.39318 -2.19262 -7.46135e-19)
(3.74413 -2.02922 5.98388e-19)
(3.54316 -2.09729 5.06432e-19)
(3.8567 -1.84545 1.88309e-19)
(3.67432 -1.95346 5.5737e-21)
(3.90806 -1.63798 2.07658e-19)
(3.76162 -1.77233 4.87868e-19)
(3.90476 -1.42856 -2.85271e-20)
(3.79893 -1.57379 -2.16977e-20)
(3.86276 -1.23156 -6.23532e-20)
(3.79174 -1.37626 -3.0962e-19)
(3.79571 -1.05613 -6.08624e-20)
(3.75197 -1.19013 1.0468e-20)
(3.71289 -0.907538 -1.03748e-19)
(3.68975 -1.02521 1.0185e-19)
(3.61446 -0.893963 -1.67377e-19)
(3.60985 -0.784414 -4.86822e-19)
(3.09197 -2.20846 4.95796e-19)
(2.93633 -2.23509 4.76225e-19)
(3.2052 -2.1884 -4.03362e-20)
(3.08768 -2.13613 -6.60851e-19)
(3.33209 -2.13333 -6.87611e-20)
(3.16974 -2.13306 4.64976e-19)
(3.46085 -2.04154 -2.80096e-20)
(3.29453 -2.06578 2.00283e-20)
(3.57092 -1.90572 2.52675e-19)
(3.4101 -1.96315 -2.62736e-22)
(3.64695 -1.73551 2.78936e-19)
(3.50284 -1.82194 2.75036e-19)
(3.68265 -1.54764 -2.92608e-19)
(3.56253 -1.65361 -5.36758e-20)
(3.68057 -1.35912 -2.69881e-19)
(3.58699 -1.474 -2.97486e-19)
(3.64893 -1.18229 1.58152e-19)
(3.5808 -1.29655 1.09406e-19)
(3.59802 -1.02496 7.38587e-20)
(3.55032 -1.13132 1.05762e-19)
(3.50127 -0.993066 -5.15561e-20)
(3.526 -0.888117 -4.14164e-20)
(2.94705 -2.13701 -5.61572e-19)
(2.83935 -2.15981 -6.59792e-19)
(3.03236 -2.10605 -1.91597e-19)
(2.92826 -2.06071 -6.20599e-19)
(3.13189 -2.06816 5.9772e-19)
(3.0023 -2.06255 5.01542e-19)
(3.23806 -2.00142 4.99887e-20)
(3.1013 -2.00851 -2.85914e-19)
(3.33646 -1.89895 -5.88492e-21)
(3.19711 -1.92925 5.83822e-19)
(3.41526 -1.76315 -3.76168e-20)
(3.28222 -1.81746 -4.70111e-19)
(3.46704 -1.60392 -4.67798e-20)
(3.34788 -1.67826 -8.57251e-20)
(3.48993 -1.43473 4.63404e-20)
(3.38953 -1.52235 2.77647e-19)
(3.48656 -1.26796 5.79214e-20)
(3.4071 -1.36108 -1.02759e-19)
(3.46145 -1.11399 0)
(3.40409 -1.20488 0)
(3.38083 -1.0703 0)
(3.41033 -0.975622 8.40017e-20)
(2.83191 -2.06647 -7.27674e-19)
(2.72463 -2.10821 -1.05109e-19)
(2.88743 -2.0363 3.67267e-20)
(2.8105 -2.00171 3.87634e-21)
(2.96894 -2.00225 -2.978e-19)
(2.86282 -1.99391 0)
(3.05577 -1.94604 1.58732e-19)
(2.94261 -1.94789 -7.49219e-19)
(3.13984 -1.86281 2.27765e-19)
(3.02259 -1.88057 4.48678e-19)
(3.2134 -1.75184 -5.55839e-19)
(3.09729 -1.78708 -2.61082e-19)
(3.27048 -1.61814 2.12217e-19)
(3.16095 -1.6696 -6.441e-19)
(3.30794 -1.47076 1.73577e-19)
(3.20966 -1.5348 6.5907e-19)
(3.32558 -1.31987 -1.67121e-19)
(3.24175 -1.39068 -4.53299e-20)
(3.32587 -1.17359 0)
(3.25687 -1.24646 -1.36739e-19)
(3.25227 -1.11929 0)
(3.30177 -1.0343 6.77259e-19)
(2.72224 -2.01421 6.17115e-19)
(2.62117 -2.05922 1.13143e-18)
(2.76463 -1.97577 -3.50881e-20)
(2.69882 -1.94517 -1.76566e-21)
(2.8309 -1.94059 -3.73411e-19)
(2.73971 -1.93259 -3.45809e-19)
(2.90294 -1.88901 -5.89442e-19)
(2.80585 -1.88925 -4.68071e-20)
(2.97449 -1.81602 3.13818e-20)
(2.87351 -1.82801 -4.93536e-19)
(3.04056 -1.72044 -2.94634e-19)
(2.93871 -1.74535 3.9818e-19)
(3.09716 -1.60507 -2.96938e-19)
(2.99785 -1.64243 -5.7317e-19)
(3.14142 -1.47577 5.10473e-19)
(3.04826 -1.52364 4.9229e-19)
(3.17181 -1.33966 -1.32785e-20)
(3.08815 -1.39426 -8.24688e-20)
(3.18864 -1.20359 -1.51755e-19)
(3.11554 -1.26122 2.66044e-19)
(3.12421 -1.13934 -1.93704e-19)
(3.18609 -1.06858 0)
(2.62742 -1.96266 8.25855e-19)
(2.53599 -2.01587 1.09662e-18)
(2.65577 -1.91944 -3.53491e-19)
(2.60083 -1.8934 -3.98298e-19)
(2.70967 -1.88296 -4.93433e-20)
(2.62906 -1.87661 -3.46998e-19)
(2.77007 -1.83354 9.52016e-20)
(2.6842 -1.83341 -3.46895e-20)
(2.83135 -1.76619 -2.21424e-19)
(2.7418 -1.775 -4.71014e-19)
(2.89013 -1.67987 2.18287e-19)
(2.79886 -1.69852 1.90692e-19)
(2.9439 -1.57662 1.143e-19)
(2.85317 -1.60486 1.57717e-19)
(2.99045 -1.46049 -4.6747e-20)
(2.903 -1.49728 1.16108e-19)
(3.02767 -1.33625 1.52613e-19)
(2.94682 -1.37935 -3.42226e-19)
(3.05376 -1.20877 2.85886e-19)
(2.98217 -1.2564 3.95901e-19)
(3.00161 -1.1435 -1.93562e-19)
(3.05818 -1.07853 -3.47653e-19)
(2.54235 -1.91989 4.18741e-19)
(2.46083 -1.98212 -3.92572e-19)
(2.55687 -1.8685 -4.7275e-19)
(2.50909 -1.84973 -4.08548e-19)
(2.59987 -1.82929 -3.64836e-19)
(2.52642 -1.82621 2.18996e-19)
(2.65054 -1.77994 -5.56468e-19)
(2.5726 -1.78054 -3.45552e-19)
(2.70334 -1.71519 -1.28995e-19)
(2.62199 -1.7223 -1.5189e-20)
(2.75581 -1.6342 1.31886e-19)
(2.67235 -1.64866 1.67969e-19)
(2.8064 -1.53875 1.61991e-19)
(2.72239 -1.56042 1.46632e-19)
(2.85351 -1.43205 -1.44842e-19)
(2.7711 -1.46034 0)
(2.8952 -1.31794 -1.80326e-19)
(2.8174 -1.35106 3.07532e-19)
(2.93008 -1.20094 0)
(2.85877 -1.23677 -7.49692e-21)
(2.88577 -1.13194 1.66803e-19)
(2.95119 -1.08152 4.88408e-21)
(2.45463 -1.88539 -1.20683e-18)
(2.377 -1.94479 -9.622e-19)
(2.45988 -1.82309 2.94835e-19)
(2.41407 -1.80714 2.53742e-20)
(2.4953 -1.77904 2.98692e-19)
(2.42547 -1.77739 7.32657e-20)
(2.53883 -1.72754 1.62674e-19)
(2.46573 -1.72843 5.30021e-20)
(2.58523 -1.66293 2.65497e-19)
(2.50923 -1.66883 3.74943e-19)
(2.63285 -1.5844 1.86331e-19)
(2.55472 -1.59579 4.74225e-19)
(2.68089 -1.49359 0)
(2.60172 -1.51022 -3.50539e-19)
(2.72834 -1.39328 4.18362e-19)
(2.64979 -1.41469 -1.80546e-19)
(2.77355 -1.28652 4.78969e-19)
(2.69829 -1.31134 6.18166e-19)
(2.81497 -1.17656 1.40205e-19)
(2.74486 -1.20307 -4.40007e-19)
(2.77884 -1.10169 8.1818e-21)
(2.84611 -1.06171 -3.40471e-19)
(2.36473 -1.84726 0)
(2.29206 -1.90328 4.82407e-20)
(2.363 -1.77691 -1.3067e-19)
(2.31996 -1.76167 0)
(2.39296 -1.72865 -1.79074e-19)
(2.32593 -1.72691 -5.43059e-19)
(2.43132 -1.67441 2.30123e-19)
(2.36138 -1.67476 1.97414e-19)
(2.47322 -1.60852 5.74049e-19)
(2.40049 -1.61305 1.8446e-19)
(2.51759 -1.53041 2.16483e-20)
(2.44275 -1.53914 2.49501e-20)
(2.56426 -1.44177 -5.50483e-19)
(2.48815 -1.45421 -2.30131e-20)
(2.61261 -1.34513 -6.82993e-20)
(2.53659 -1.36096 1.67505e-19)
(2.66105 -1.24269 -2.55648e-19)
(2.58756 -1.26128 4.16533e-19)
(2.70733 -1.13558 -6.311e-19)
(2.63856 -1.15688 -6.34178e-19)
(2.67713 -1.05842 -1.65551e-19)
(2.74128 -1.01716 5.64197e-19)
(2.2802 -1.80678 5.31123e-20)
(2.21619 -1.87234 8.25968e-21)
(2.26883 -1.72879 -3.57826e-19)
(2.22882 -1.71904 0)
(2.29271 -1.67636 -2.59462e-19)
(2.22793 -1.67599 -8.62161e-20)
(2.32643 -1.61892 1.49462e-19)
(2.25874 -1.61891 1.29028e-20)
(2.36496 -1.55076 -3.51568e-19)
(2.29437 -1.55372 -8.94116e-20)
(2.40748 -1.47158 -1.26084e-20)
(2.33469 -1.47748 -2.21777e-19)
(2.4541 -1.38333 6.81883e-19)
(2.37996 -1.39163 5.3625e-19)
(2.50434 -1.28863 6.24167e-19)
(2.43017 -1.29914 2.72432e-19)
(2.55637 -1.1896 9.40273e-20)
(2.48471 -1.20209 2.69979e-19)
(2.60766 -1.08785 -2.19255e-19)
(2.54104 -1.10176 -1.98093e-19)
(2.58525 -1.00797 0)
(2.65102 -0.980592 1.28667e-19)
(2.19058 -1.76984 -5.30269e-20)
(2.13169 -1.83084 -2.59657e-20)
(2.1726 -1.68021 2.83047e-19)
(2.13208 -1.67133 0)
(2.19208 -1.62139 1.79882e-19)
(2.12773 -1.62053 3.14656e-19)
(2.22252 -1.5593 -2.15945e-19)
(2.15571 -1.55807 -1.95923e-19)
(2.25907 -1.4876 5.49414e-20)
(2.18935 -1.48847 0)
(2.30126 -1.40608 2.50305e-19)
(2.22933 -1.40875 -2.33532e-19)
(2.34944 -1.31699 1.5026e-19)
(2.27625 -1.32081 2.01698e-19)
(2.40308 -1.22328 -8.96475e-20)
(2.33007 -1.22818 -1.38505e-20)
(2.46001 -1.12701 0)
(2.38972 -1.13334 -1.07166e-19)
(2.51711 -1.02896 0)
(2.45235 -1.03695 1.55652e-19)
(2.50308 -0.947242 0)
(2.56652 -0.923901 0)
(2.09664 -1.72536 2.44201e-20)
(2.04491 -1.77886 1.92575e-19)
(2.07362 -1.62569 0)
(2.0338 -1.6157 0)
(2.09001 -1.56058 0)
(2.0263 -1.5578 0)
(2.11844 -1.49319 0)
(2.05193 -1.48979 4.01967e-20)
(2.15448 -1.41697 -2.66463e-19)
(2.08465 -1.41498 1.65927e-19)
(2.19813 -1.33206 -3.27809e-19)
(2.126 -1.33076 -4.01973e-19)
(2.24989 -1.24135 5.87918e-20)
(2.17675 -1.23991 -2.82142e-21)
(2.30892 -1.1483 -2.3155e-20)
(2.2365 -1.14687 -1.13609e-19)
(2.37229 -1.05514 3.04799e-20)
(2.30321 -1.05477 -1.51602e-20)
(2.43593 -0.962161 1.73613e-19)
(2.37343 -0.963614 8.06008e-20)
(2.43056 -0.879487 1.59959e-19)
(2.49203 -0.862386 4.26859e-20)
(2.00539 -1.67273 1.90564e-19)
(1.96229 -1.73112 -3.56859e-19)
(1.97487 -1.56379 0)
(1.93606 -1.5578 2.61801e-19)
(1.98724 -1.49207 3.61005e-20)
(1.92398 -1.48899 -1.16182e-20)
(2.01394 -1.41851 1.93273e-19)
(1.94722 -1.41303 1.78764e-21)
(2.05075 -1.33666 8.81727e-20)
(1.98016 -1.3311 1.36413e-19)
(2.09793 -1.24744 -1.15145e-19)
(2.02497 -1.241 4.69689e-21)
(2.15579 -1.15474 -1.60626e-19)
(2.08232 -1.14669 6.74269e-20)
(2.22263 -1.06289 -1.15479e-19)
(2.15086 -1.05382 -2.05192e-19)
(2.29421 -0.974226 3.60606e-20)
(2.22679 -0.966142 -2.85262e-21)
(2.36513 -0.888356 5.87196e-20)
(2.30575 -0.882797 9.77426e-21)
(2.3696 -0.8071 1.10089e-19)
(2.42786 -0.797988 -2.62067e-19)
(1.91056 -1.61799 -4.00834e-19)
(1.87743 -1.67139 -5.25891e-19)
(1.87351 -1.49602 2.77021e-19)
(1.83424 -1.49157 2.0643e-20)
(1.88243 -1.41471 -4.97464e-20)
(1.81868 -1.40991 1.81861e-19)
(1.90864 -1.33267 -7.40455e-20)
(1.84086 -1.32379 -4.10778e-20)
(1.94833 -1.24349 6.22033e-20)
(1.8763 -1.23273 -1.25673e-19)
(2.00189 -1.14919 1.78148e-19)
(1.92771 -1.13575 9.30188e-20)
(2.06905 -1.05496 5.16551e-20)
(1.99547 -1.03822 1.20136e-19)
(2.14646 -0.966021 -1.12119e-19)
(2.07606 -0.947538 -1.26595e-19)
(2.22797 -0.884417 -2.66689e-20)
(2.16317 -0.867444 4.3114e-20)
(2.30698 -0.807948 5.07223e-20)
(2.25142 -0.795151 -3.96279e-20)
(2.32196 -0.730341 -1.15581e-20)
(2.37719 -0.729166 3.27835e-19)
(1.81102 -1.55403 -2.13351e-19)
(1.79162 -1.5983 -7.89899e-21)
(1.76831 -1.41787 -3.4517e-20)
(1.72832 -1.41342 -2.40735e-19)
(1.77501 -1.32446 2.14189e-19)
(1.71112 -1.31561 1.99551e-19)
(1.80295 -1.23174 -8.38544e-20)
(1.73465 -1.21674 0)
(1.84883 -1.13377 -1.14974e-19)
(1.77645 -1.11467 -8.83751e-20)
(1.91289 -1.03409 2.97408e-20)
(1.83912 -1.01037 -2.36377e-20)
(1.99327 -0.939911 -3.39171e-20)
(1.92158 -0.911694 8.78886e-20)
(2.08388 -0.857313 3.46003e-21)
(2.0171 -0.82752 -1.00553e-19)
(2.17614 -0.786789 4.40909e-20)
(2.11615 -0.759943 1.51171e-19)
(2.26251 -0.723359 -1.17928e-19)
(2.21245 -0.703088 -1.61998e-19)
(2.28828 -0.650885 5.189e-20)
(2.33924 -0.657335 3.00869e-20)
(1.70729 -1.4751 -1.34136e-20)
(1.705 -1.50852 1.17192e-19)
(1.66022 -1.32288 1.91973e-22)
(1.61897 -1.31819 1.29283e-19)
(1.66726 -1.21428 7.50463e-21)
(1.6042 -1.19876 -9.20344e-20)
(1.70114 -1.10866 4.47022e-21)
(1.63412 -1.0844 3.39263e-20)
(1.75852 -1.00129 1.54479e-22)
(1.68815 -0.97063 -2.81702e-20)
(1.83838 -0.898299 2.47709e-20)
(1.7682 -0.861262 4.91774e-21)
(1.9355 -0.808817 4.51347e-20)
(1.86955 -0.766982 3.10644e-20)
(2.04034 -0.738121 1.89748e-20)
(1.98128 -0.69603 -6.70308e-22)
(2.14211 -0.683835 -1.78745e-20)
(2.09059 -0.647179 8.16801e-22)
(2.2328 -0.637423 -3.41452e-20)
(2.19088 -0.610752 -3.62804e-20)
(2.26883 -0.576136 1.05121e-20)
(2.30929 -0.588682 -3.30632e-19)
(1.59928 -1.37645 2.62545e-19)
(1.61926 -1.39326 5.13194e-20)
(1.55148 -1.20245 -1.14656e-20)
(1.50604 -1.19131 1.34535e-19)
(1.56498 -1.07606 -8.26172e-20)
(1.5082 -1.04842 -1.11501e-19)
(1.61141 -0.956933 -1.58792e-20)
(1.5515 -0.919201 -1.43454e-20)
(1.68728 -0.842119 -2.83551e-20)
(1.62508 -0.796182 2.34943e-20)
(1.78862 -0.74098 1.21634e-20)
(1.72842 -0.688146 -3.27799e-20)
(1.90494 -0.663423 1.04256e-21)
(1.85067 -0.607639 1.36818e-20)
(2.02243 -0.61195 -1.08134e-20)
(1.97615 -0.559203 -3.05855e-21)
(2.1293 -0.579888 -8.33141e-21)
(2.09071 -0.535951 1.02458e-20)
(2.21973 -0.554704 -1.57115e-21)
(2.18884 -0.523293 8.27694e-21)
(2.26381 -0.508739 -7.74328e-21)
(2.29292 -0.521614 1.84698e-21)
(1.48401 -1.22323 -7.84698e-20)
(1.55653 -1.20743 -1.74222e-19)
(1.45675 -1.04102 -2.10769e-20)
(1.43683 -1.02026 -3.4432e-20)
(1.48283 -0.900629 -9.28142e-20)
(1.44138 -0.862757 -2.30521e-20)
(1.54986 -0.771284 -1.90967e-20)
(1.50754 -0.718715 9.43059e-20)
(1.65186 -0.655861 2.74191e-20)
(1.6095 -0.59381 -2.38139e-20)
(1.77793 -0.567013 -3.03295e-20)
(1.73907 -0.500067 -4.32189e-20)
(1.91107 -0.512139 1.92222e-20)
(1.87813 -0.44612 7.98165e-21)
(2.03535 -0.487914 1.57446e-20)
(2.00891 -0.428607 5.77826e-20)
(2.14096 -0.48245 2.7096e-20)
(2.11944 -0.434433 1.52331e-20)
(2.22408 -0.480406 2.48244e-21)
(2.2067 -0.447254 1.50418e-20)
(2.27118 -0.452112 3.00944e-20)
(2.28842 -0.471384 -7.70313e-20)
(1.43799 -1.16246 -2.52347e-20)
(1.56803 -0.928503 -6.56331e-19)
(1.38281 -0.899728 -3.72103e-20)
(1.34687 -0.776303 -8.10546e-20)
(1.4352 -0.71377 1.19383e-19)
(1.44919 -0.607145 -2.8742e-19)
(1.53852 -0.567709 1.16151e-19)
(1.55494 -0.481087 1.30371e-19)
(1.67481 -0.459891 -8.42221e-20)
(1.68583 -0.382656 1.67245e-19)
(1.82321 -0.395899 -7.49766e-21)
(1.82914 -0.324756 0)
(1.96355 -0.373302 4.29762e-20)
(1.96693 -0.308587 -1.15779e-19)
(2.08281 -0.38044 4.6256e-20)
(2.08562 -0.324071 -1.61618e-19)
(2.17611 -0.401415 -1.56654e-20)
(2.17818 -0.356379 -1.91428e-20)
(2.24463 -0.420254 3.93372e-20)
(2.2445 -0.390209 1.30891e-20)
(2.29002 -0.411621 6.56418e-20)
(2.29783 -0.417144 -2.65741e-19)
(1.34383 -0.536142 3.62996e-19)
(2.26014 -0.208633 -1.62664e-18)
(1.45829 -0.411708 -4.44513e-19)
(1.67269 -0.632312 7.14296e-19)
(1.56926 -0.310912 -3.09921e-19)
(1.71678 -0.521362 -2.78203e-18)
(1.70121 -0.247129 2.06785e-19)
(1.79038 -0.397233 2.49576e-19)
(1.84242 -0.21259 2.62894e-19)
(1.89147 -0.300045 3.10059e-19)
(1.9755 -0.213643 -9.29794e-20)
(2.00021 -0.25413 -8.33775e-20)
(2.08867 -0.243195 -2.79944e-19)
(2.10448 -0.251033 3.85733e-19)
(2.17758 -0.289318 -1.99338e-19)
(2.19369 -0.277545 1.61913e-19)
(2.24137 -0.338907 9.22062e-21)
(2.25963 -0.320766 1.11514e-19)
(2.28264 -0.378392 4.80086e-20)
(2.29933 -0.365596 -1.24636e-19)
(2.31817 -0.395076 1.59796e-20)
(2.3112 -0.394702 -9.75593e-20)
(4.70906 -0.514819 -3.20652e-19)
(4.77331 -1.32574 -2.54725e-19)
(4.99374 -0.542367 -1.93732e-19)
(4.48095 -0.849691 -1.62353e-19)
(5.06754 -0.485337 -2.36845e-19)
(4.7309 -0.551803 2.61662e-19)
(5.02415 -0.401182 -5.58317e-20)
(4.91126 -0.376356 -1.71894e-19)
(4.89712 -0.319762 -4.29288e-20)
(4.92493 -0.243992 1.52086e-19)
(4.70788 -0.251321 -5.53296e-20)
(4.81888 -0.141629 -5.16872e-20)
(4.49356 -0.196695 -9.99953e-20)
(4.64025 -0.076939 -5.80112e-20)
(4.28943 -0.15323 -4.60945e-20)
(4.42767 -0.0417705 -6.76434e-20)
(4.10629 -0.124183 -3.78445e-20)
(4.20534 -0.0187851 3.48107e-20)
(3.93566 -0.111668 2.31518e-20)
(4.01381 -0.00920155 -6.42512e-20)
(3.84273 -0.0219007 5.80384e-20)
(3.77184 -0.127588 6.64762e-20)
(4.15587 -1.4584 -3.46389e-19)
(4.47021 -2.95739 5.87241e-19)
(4.41541 -0.884371 4.9876e-20)
(4.31081 -1.83233 -8.79272e-19)
(4.64788 -0.539671 2.70547e-20)
(4.45108 -1.08018 8.34309e-20)
(4.80058 -0.309552 -1.27742e-19)
(4.64996 -0.596408 1.4328e-19)
(4.84396 -0.137649 -1.01184e-20)
(4.77184 -0.259639 4.64285e-21)
(4.77391 -0.0165924 -5.31028e-20)
(4.78811 -0.0184415 -1.1675e-19)
(4.60695 0.0538657 2.78225e-20)
(4.69865 0.134244 6.59348e-20)
(4.38122 0.0840025 8.18656e-20)
(4.51817 0.209763 2.01544e-20)
(4.15069 0.0893413 4.94561e-20)
(4.27318 0.22448 5.31527e-20)
(3.94975 0.0781038 -7.63476e-20)
(4.02969 0.2048 1.8358e-20)
(3.83334 0.171114 -1.14533e-20)
(3.75685 0.0336653 -1.58396e-20)
(4.56069 -3.1662 2.3983e-19)
(4.77525 -3.67036 1.28408e-18)
(4.38722 -1.97974 -8.6711e-19)
(4.52992 -2.95229 1.24307e-19)
(4.46974 -1.13725 2.40939e-19)
(4.4449 -1.97303 9.39118e-20)
(4.6115 -0.580278 2.49288e-19)
(4.51815 -1.1419 -3.16525e-19)
(4.7109 -0.186333 -6.59169e-20)
(4.62919 -0.535291 -9.44802e-20)
(4.7232 0.0896146 3.86123e-20)
(4.69409 -0.0829439 -1.74647e-20)
(4.63318 0.25993 6.45848e-20)
(4.67016 0.23114 6.33321e-20)
(4.44879 0.336003 -9.0524e-21)
(4.54515 0.415358 -1.02342e-20)
(4.2007 0.339023 3.69538e-20)
(4.32713 0.48287 -2.06321e-20)
(3.94724 0.304424 4.63456e-20)
(4.05085 0.461912 5.8482e-20)
(3.81252 0.396734 -2.12665e-20)
(3.72619 0.256186 -3.24271e-20)
(4.75739 -3.63263 1.6865e-18)
(4.99466 -3.82926 -7.59366e-19)
(4.60687 -2.99688 1.19075e-18)
(4.81936 -3.55908 3.17377e-18)
(4.50549 -2.01019 -3.40851e-19)
(4.64518 -2.86006 -1.58198e-18)
(4.53901 -1.13098 -6.5006e-19)
(4.55302 -1.90296 5.7518e-20)
(4.60966 -0.468456 -5.48026e-20)
(4.57475 -1.0277 1.8126e-20)
(4.64123 0.0225135 0)
(4.61685 -0.333213 -3.26245e-19)
(4.59367 0.358987 0)
(4.6082 0.187649 2.41325e-19)
(4.45217 0.548114 -1.90213e-20)
(4.51439 0.535481 -1.40385e-19)
(4.22554 0.604887 -7.90391e-21)
(4.32678 0.71298 7.5375e-20)
(3.95015 0.56283 2.79182e-20)
(4.05632 0.738368 -2.52356e-22)
(3.77879 0.660135 -3.7199e-20)
(3.68498 0.45959 -7.93343e-21)
(5.01981 -3.84292 4.90852e-19)
(5.19779 -4.03278 1.75075e-19)
(4.88035 -3.51063 9.69121e-19)
(5.10978 -3.79373 9.56354e-19)
(4.72204 -2.82909 -1.3217e-18)
(4.94536 -3.39497 -2.50008e-18)
(4.61405 -1.85466 7.13269e-19)
(4.76661 -2.6444 1.32489e-18)
(4.59041 -0.943551 -2.27815e-19)
(4.64411 -1.6627 4.64886e-20)
(4.58481 -0.213962 -1.54803e-19)
(4.60141 -0.747784 1.00346e-19)
(4.53196 0.327514 1.43243e-19)
(4.55471 0.00209875 -7.31336e-20)
(4.40532 0.679518 -4.75587e-20)
(4.45199 0.546683 -6.83687e-19)
(4.19616 0.844266 8.10435e-20)
(4.27196 0.879852 4.11439e-19)
(3.92186 0.845403 -5.39897e-20)
(4.01045 1.00143 1.17087e-19)
(3.71099 0.951159 -5.69191e-20)
(3.62933 0.713995 4.01968e-20)
(5.28048 -4.04868 7.28579e-19)
(5.39138 -4.2742 1.60902e-18)
(5.17444 -3.76239 -2.23335e-18)
(5.38613 -4.01204 -1.31657e-18)
(5.01365 -3.30906 -2.95643e-19)
(5.23327 -3.68179 3.15031e-19)
(4.8335 -2.54128 7.97335e-19)
(5.0521 -3.14498 -1.22075e-19)
(4.68472 -1.53423 3.67952e-19)
(4.84002 -2.29371 -6.86061e-19)
(4.58403 -0.59697 2.31685e-19)
(4.66882 -1.26534 9.34979e-19)
(4.47977 0.165222 -8.28586e-19)
(4.53304 -0.316561 4.83715e-19)
(4.32747 0.709932 -2.60607e-19)
(4.37673 0.441554 -1.00151e-18)
(4.11264 1.02279 4.79294e-19)
(4.16985 0.957974 4.51498e-19)
(3.83971 1.11332 1.67574e-19)
(3.90209 1.21381 4.05362e-19)
(3.59173 1.23309 6.14627e-20)
(3.54774 0.975117 8.99771e-19)
(5.51625 -4.26001 -1.40043e-19)
(5.56236 -4.49899 2.45419e-19)
(5.44048 -4.00231 1.06908e-18)
(5.6272 -4.23096 -1.59124e-18)
(5.29316 -3.59718 5.67296e-19)
(5.48337 -3.94187 1.04523e-18)
(5.0904 -3.00828 -1.54969e-18)
(5.30516 -3.46831 1.09709e-19)
(4.87131 -2.12826 -3.71688e-19)
(5.0728 -2.78953 -6.82102e-19)
(4.65019 -1.07596 1.27692e-18)
(4.80072 -1.80921 5.14243e-19)
(4.4465 -0.120132 4.8511e-19)
(4.54791 -0.731383 2.27357e-19)
(4.2291 0.627822 -3.92001e-19)
(4.29802 0.218213 -4.63092e-19)
(3.97703 1.11425 3.1072e-19)
(4.02721 0.928761 -1.452e-19)
(3.68915 1.32669 3.27364e-19)
(3.72594 1.34449 -2.91095e-19)
(3.41636 1.46489 5.70698e-19)
(3.38841 1.29215 -1.03409e-18)
(5.71096 -4.46502 -1.01839e-18)
(5.71168 -4.69993 1.55702e-19)
(5.65838 -4.24016 -1.7436e-18)
(5.82458 -4.43607 3.26768e-19)
(5.52253 -3.86983 6.61622e-19)
(5.67919 -4.19294 2.38378e-19)
(5.31826 -3.34013 1.07245e-18)
(5.50726 -3.75966 -9.43344e-20)
(5.04927 -2.58916 0)
(5.26416 -3.16316 9.34718e-19)
(4.75216 -1.57803 -5.07984e-19)
(4.94518 -2.31216 -7.34763e-19)
(4.43269 -0.500128 -6.31665e-19)
(4.58565 -1.20117 -6.15672e-20)
(4.11544 0.430218 -2.45233e-19)
(4.21903 -0.111267 0)
(3.79257 1.09878 -7.15095e-19)
(3.85119 0.780459 -2.75793e-19)
(3.46723 1.45853 3.28063e-20)
(3.48851 1.3646 -1.59377e-18)
(3.14894 1.62565 1.11297e-18)
(3.11849 1.5513 3.32597e-19)
(5.87006 -4.65232 1.48301e-18)
(5.8388 -4.87098 8.27698e-19)
(5.82866 -4.45939 2.32053e-18)
(5.9795 -4.61766 1.75612e-18)
(5.69377 -4.1286 -4.71884e-19)
(5.81984 -4.42379 7.8198e-20)
(5.48656 -3.65151 -3.46446e-19)
(5.64897 -4.03325 -1.07933e-18)
(5.20549 -2.98873 4.08685e-19)
(5.39779 -3.50056 9.41828e-19)
(4.84305 -2.06142 -3.15766e-19)
(5.0547 -2.75997 -7.39146e-19)
(4.4249 -0.93862 6.20998e-19)
(4.61563 -1.71325 5.61464e-19)
(3.98745 0.122329 0)
(4.13035 -0.530258 -1.13958e-18)
(3.56912 0.95709 -9.17078e-19)
(3.64425 0.502546 8.44063e-19)
(3.19032 1.47233 -5.81635e-19)
(3.19839 1.242 -9.54992e-20)
(2.81675 1.62281 -5.9615e-19)
(2.86856 1.66797 -4.73262e-19)
(5.99132 -4.81261 1.00077e-18)
(5.93998 -5.01507 2.45024e-18)
(5.95116 -4.65243 -5.42719e-19)
(6.08632 -4.77022 2.52727e-19)
(5.80882 -4.36432 -3.77005e-19)
(5.90648 -4.62727 -2.27508e-18)
(5.59375 -3.94451 0)
(5.73136 -4.28537 -1.01607e-19)
(5.29778 -3.35423 0)
(5.46807 -3.82338 1.03794e-18)
(4.89488 -2.53058 0)
(5.10513 -3.17165 -9.71502e-19)
(4.39713 -1.44412 -1.01817e-18)
(4.60933 -2.24726 -1.66665e-18)
(3.83466 -0.296469 -4.00038e-19)
(4.0252 -1.03606 1.99342e-19)
(3.30262 0.6703 1.84441e-18)
(3.40999 0.0927799 -6.63747e-20)
(2.84748 1.32441 1.69382e-20)
(2.86222 0.963135 2.24525e-18)
(2.42624 1.47283 -2.17599e-18)
(2.48769 1.63176 3.15042e-18)
(6.06414 -4.94025 1.92537e-18)
(5.97495 -5.10884 -1.14539e-18)
(6.02452 -4.81314 -1.22666e-18)
(6.13823 -4.90828 1.76962e-18)
(5.86603 -4.57043 -2.31851e-18)
(5.93926 -4.79686 -1.95135e-18)
(5.63822 -4.21709 8.1811e-19)
(5.75062 -4.51031 -1.02219e-19)
(5.32674 -3.71109 2.78129e-19)
(5.47184 -4.12984 -1.49017e-19)
(4.89924 -2.98831 -2.56968e-18)
(5.09209 -3.57874 -1.1012e-19)
(4.33066 -1.98139 -7.30459e-19)
(4.56289 -2.78859 -2.54671e-18)
(3.66189 -0.811332 8.08963e-19)
(3.8954 -1.63298 8.22594e-20)
(3.00731 0.238454 5.08134e-19)
(3.15859 -0.441812 2.32673e-18)
(2.47016 1.01106 2.39425e-19)
(2.50854 0.515015 1.03345e-18)
(2.02015 1.13529 1.05658e-18)
(2.09014 1.43829 -5.46738e-19)
(6.09183 -5.03436 -2.01512e-18)
(5.97892 -5.19155 7.40334e-19)
(6.03541 -4.94708 1.43203e-18)
(6.12074 -5.01159 -4.18624e-19)
(5.85602 -4.75464 -8.74283e-21)
(5.90919 -4.92569 3.55736e-19)
(5.61588 -4.46882 -1.07228e-18)
(5.70543 -4.71108 -6.48181e-19)
(5.28676 -4.05535 -5.37448e-19)
(5.40588 -4.41149 -2.41331e-18)
(4.8386 -3.45196 2.09767e-19)
(5.00652 -3.97291 3.85728e-18)
(4.22563 -2.56704 -2.21185e-18)
(4.46286 -3.33246 3.2947e-21)
(3.47315 -1.43274 1.35062e-18)
(3.72774 -2.33017 1.31677e-19)
(2.7027 -0.342011 2.97583e-18)
(2.9029 -1.09957 1.13008e-18)
(2.09534 0.51226 2.14296e-18)
(2.16399 -0.109612 1.3465e-19)
(1.662 0.587833 9.5668e-19)
(1.721 1.06814 1.21097e-18)
(6.06802 -5.10178 2.49888e-18)
(5.95082 -5.23257 6.42237e-18)
(5.98586 -5.04726 -1.56471e-18)
(6.04221 -5.08061 -3.36988e-18)
(5.79138 -4.8999 -1.64359e-19)
(5.82525 -5.03029 -1.13748e-18)
(5.52811 -4.68706 -1.8086e-18)
(5.58852 -4.8786 1.90692e-18)
(5.174 -4.37195 1.29696e-18)
(5.26681 -4.65885 -2.27269e-18)
(4.70191 -3.90616 4.06912e-18)
(4.84492 -4.33183 3.11646e-18)
(4.06017 -3.19383 2.33399e-18)
(4.29409 -3.84747 -2.55482e-18)
(3.25974 -2.15678 -3.43076e-19)
(3.55186 -3.09047 2.94055e-18)
(2.41282 -1.05906 -2.51366e-18)
(2.68637 -1.87447 -1.16751e-18)
(1.74126 -0.169973 -8.24598e-19)
(1.86428 -0.877098 -3.80934e-18)
(1.32952 -0.103195 1.02611e-19)
(1.28795 0.457884 -3.13633e-18)
(5.98576 -5.1284 2.41375e-18)
(5.85985 -5.21988 3.84113e-18)
(5.87273 -5.10972 -3.16872e-18)
(5.89331 -5.11773 -1.63604e-18)
(5.65447 -5.01715 6.11399e-19)
(5.6696 -5.10333 -1.51912e-18)
(5.366 -4.8717 1.90398e-18)
(5.40648 -5.01887 4.41607e-18)
(4.98955 -4.64911 -1.05225e-18)
(5.06312 -4.88064 -3.11708e-18)
(4.50686 -4.31479 -2.85026e-18)
(4.62565 -4.65951 2.39227e-18)
(3.88609 -3.80275 -2.75713e-18)
(4.07625 -4.31799 -2.68988e-18)
(3.0593 -2.94922 2.56407e-18)
(3.38769 -3.79019 2.77022e-18)
(2.17951 -1.85031 -2.36492e-18)
(2.55426 -2.78798 7.32202e-20)
(1.4738 -0.948885 -3.0672e-18)
(1.67506 -1.7397 -3.86005e-18)
(1.08762 -0.914916 1.0639e-18)
(1.01857 -0.300623 2.21569e-18)
(5.83428 -5.12485 7.88403e-19)
(5.70877 -5.16581 -6.87042e-19)
(5.6892 -5.14248 0)
(5.67429 -5.11882 1.31483e-18)
(5.4482 -5.10763 1.64868e-18)
(5.43797 -5.14517 -1.31806e-19)
(5.13758 -5.03469 1.96033e-19)
(5.15328 -5.1328 7.47263e-19)
(4.74404 -4.90252 -3.04951e-19)
(4.79687 -5.0831 -9.9597e-19)
(4.25527 -4.68098 3.14893e-18)
(4.36074 -4.96877 1.76752e-18)
(3.65641 -4.32256 2.04512e-18)
(3.83747 -4.75419 -9.42241e-20)
(2.9167 -3.7473 3.90775e-19)
(3.21205 -4.37855 1.36036e-18)
(2.07167 -2.82777 -1.16758e-18)
(2.47118 -3.70025 -1.82671e-19)
(1.30677 -1.84215 0)
(1.65537 -2.68833 -6.50202e-19)
(1.02683 -1.80395 -6.48054e-19)
(0.881001 -1.12703 -7.63629e-19)
(5.61024 -5.07872 -7.10646e-19)
(5.48309 -5.06217 -1.56936e-18)
(5.42844 -5.13522 1.32597e-18)
(5.37731 -5.07107 1.30612e-18)
(5.16541 -5.16449 -1.11891e-18)
(5.1233 -5.14754 -9.01589e-19)
(4.84111 -5.17386 -2.73745e-19)
(4.82378 -5.21576 -1.82145e-19)
(4.44845 -5.14246 7.88979e-19)
(4.46883 -5.2645 8.22957e-19)
(3.98216 -5.03946 -1.15139e-18)
(4.05789 -5.26298 -4.32647e-19)
(3.43335 -4.81909 -8.33437e-19)
(3.59167 -5.1705 -1.97411e-18)
(2.78646 -4.41537 7.77785e-19)
(3.0626 -4.92851 9.39333e-19)
(2.05497 -3.73589 3.14185e-21)
(2.46267 -4.46127 1.19141e-18)
(1.36408 -2.80923 -1.30208e-18)
(1.7956 -3.64425 -4.22105e-19)
(1.18409 -2.76567 7.28485e-19)
(0.861542 -1.93993 -2.16084e-18)
(5.29725 -4.9777 -1.84422e-19)
(5.15846 -4.9057 -6.64952e-20)
(5.07727 -5.07868 -7.02551e-19)
(4.98555 -4.96677 0)
(4.79672 -5.1809 -8.35467e-20)
(4.71245 -5.10534 -9.13857e-19)
(4.47271 -5.28347 8.00031e-19)
(4.41056 -5.26475 7.34605e-19)
(4.10476 -5.36187 -2.35967e-19)
(4.08049 -5.42008 -2.12775e-19)
(3.69481 -5.38123 -1.09118e-18)
(3.72757 -5.53261 0)
(3.24282 -5.2932 -5.03354e-19)
(3.3575 -5.55693 -7.21059e-19)
(2.74098 -5.03269 1.32597e-18)
(2.9665 -5.43695 1.30862e-18)
(2.17211 -4.52836 5.58993e-19)
(2.53854 -5.10886 -6.70963e-19)
(1.58972 -3.75793 9.36302e-19)
(2.04221 -4.49 6.21615e-19)
(1.50124 -3.70787 6.6614e-19)
(1.05944 -2.88324 9.92783e-19)
(4.87321 -4.81545 8.39695e-20)
(4.70829 -4.70526 1.1658e-19)
(4.61834 -4.97019 -9.86908e-20)
(4.47373 -4.80703 -9.72498e-19)
(4.33192 -5.15714 -2.45223e-19)
(4.18692 -5.01736 4.39743e-19)
(4.03181 -5.36309 -1.52713e-19)
(3.907 -5.27304 5.63132e-19)
(3.72198 -5.55388 0)
(3.63875 -5.53049 -5.04227e-19)
(3.40749 -5.68777 4.45851e-19)
(3.38584 -5.73855 0)
(3.09013 -5.71431 8.57364e-19)
(3.15229 -5.8471 4.98793e-19)
(2.75708 -5.57299 -5.49519e-19)
(2.93097 -5.80359 3.6788e-19)
(2.37482 -5.2072 -7.41864e-19)
(2.69023 -5.56323 -8.88825e-19)
(1.93196 -4.58003 9.8538e-20)
(2.38273 -5.09496 2.40897e-19)
(1.98645 -4.44158 -3.15484e-19)
(1.36823 -3.72041 -4.67968e-19)
(4.32632 -4.59435 -5.7236e-19)
(4.08321 -4.48915 -1.8201e-19)
(4.04318 -4.81497 -6.70846e-19)
(3.8086 -4.5881 -9.49172e-19)
(3.77151 -5.091 1.21631e-18)
(3.53527 -4.82895 5.19431e-19)
(3.52817 -5.39172 3.83699e-19)