/*--------------------------------*- C++ -*----------------------------------*\
| =========                 |                                                 |
| \\      /  F ield         | OpenFOAM: The Open Source CFD Toolbox           |
|  \\    /   O peration     | Version:  3.0.1                                 |
|   \\  /    A nd           | Web:      www.OpenFOAM.org                      |
|    \\/     M anipulation  |                                                 |
\*---------------------------------------------------------------------------*/
FoamFile
{
    version     2.0;
    format      ascii;
    class       volScalarField;
    location    "0.081884";
    object      nut;
}
// * * * * * * * * * * * * * * * * * * * * * * * * * * * * * * * * * * * * * //

dimensions      [0 2 -1 0 0 0 0];

internalField   nonuniform List<scalar> 
21246
(
4.3753e-05
0.00026233
0.000371885
0.000469718
0.000515098
0.000523112
0.000495569
0.0004473
0.000393484
0.000340198
0.000289231
3.40142e-05
0.000148992
0.000228112
0.000316198
0.000399204
0.000480561
0.000507574
0.000469061
0.000410296
0.000352075
0.000296287
3.02019e-05
0.000103518
0.00017769
0.000248526
0.000318093
0.000384625
0.000454505
0.000483708
0.000432976
0.00037006
0.000307449
2.79962e-05
8.4373e-05
0.000150537
0.000213646
0.000275083
0.000330816
0.00039066
0.00044979
0.000451609
0.000393558
0.000325327
2.56037e-05
7.78974e-05
0.000135748
0.000193157
0.000249573
0.000299458
0.000347786
0.000401464
0.000440192
0.000417597
0.000350701
2.28523e-05
7.69561e-05
0.000128094
0.000181065
0.000233488
0.000279696
0.000320527
0.000362668
0.000407751
0.000422747
0.000377978
2.03528e-05
7.94878e-05
0.000126248
0.000175053
0.000224148
0.000267878
0.000304373
0.000337573
0.000375175
0.000407649
0.000394965
1.88424e-05
8.73887e-05
0.000131493
0.000175684
0.00022114
0.000262674
0.000296694
0.000324348
0.000352768
0.000385052
0.00039595
1.90351e-05
0.000103627
0.000146139
0.000184711
0.000225249
0.000263691
0.0002956
0.000319923
0.000341314
0.000366492
0.00038597
2.01187e-05
0.000124733
0.000170882
0.000204482
0.00023838
0.000271698
0.000300473
0.000322161
0.000338732
0.00035632
0.000374247
2.06628e-05
0.000145232
0.00020314
0.000236045
0.000263046
0.000288892
0.000312338
0.000330611
0.000343484
0.000354891
0.000367364
2.04791e-05
0.000161668
0.000236767
0.00027525
0.00029885
0.000316785
0.000332662
0.000345709
0.000354719
0.000361196
0.000367835
1.96319e-05
0.000171132
0.000263621
0.000312312
0.000339254
0.000353006
0.000361222
0.000367512
0.000371769
0.000373852
0.000375266
1.83638e-05
0.000172163
0.000278364
0.000337847
0.000373691
0.000390343
0.000394633
0.000394666
0.000393706
0.000391559
0.000388394
1.69155e-05
0.000165895
0.000279582
0.000347338
0.000393714
0.000419639
0.000426504
0.000423703
0.000418672
0.000412857
0.000405821
1.551e-05
0.000154876
0.000268441
0.000341107
0.00039617
0.000433843
0.000449456
0.000449324
0.000443419
0.000435574
0.00042531
1.42461e-05
0.00014205
0.000248993
0.00032275
0.000382435
0.000430179
0.000457823
0.000465842
0.000463612
0.000456479
0.000444121
1.30677e-05
0.000129293
0.000227226
0.000297026
0.00035663
0.000410143
0.000449368
0.000468895
0.000474741
0.00047158
0.000458933
1.189e-05
0.000116785
0.00020711
0.000272076
0.000325799
0.000378105
0.000425689
0.000457194
0.00047378
0.00047783
0.000466827
1.07141e-05
0.00010419
0.000187823
0.000250339
0.00029824
0.000343859
0.000391442
0.000433237
0.000459908
0.000472962
0.000466775
9.46278e-06
9.06899e-05
0.000166801
0.000227725
0.000271782
0.000311293
0.000353221
0.000397179
0.000426571
0.000442982
0.000438653
7.91483e-06
7.53622e-05
0.000136738
0.000189775
0.000230662
0.000267474
0.000305724
0.000341009
0.000364081
0.000376378
0.000372631
5.9585e-06
5.10353e-05
8.57124e-05
0.000129665
0.000170099
0.000209761
0.000248433
0.000283412
0.000312828
0.000340384
0.000362026
5.03432e-06
1.5892e-05
3.6073e-05
7.71562e-05
0.000128347
0.000183437
0.000239983
0.000296336
0.000350593
0.000400253
0.000434054
3.99619e-05
0.000278741
0.000416783
0.000484505
0.000512635
0.000510622
0.000482177
0.000437889
0.00038816
0.000337255
0.000286346
2.54439e-05
0.00021689
0.000378842
0.000480766
0.000524267
0.000525496
0.000496817
0.000452422
0.000402619
0.000351239
0.000299694
2.36259e-05
0.000178624
0.000348745
0.000484858
0.000548447
0.000553504
0.000522768
0.00047641
0.000425713
0.000373377
0.000320404
2.45549e-05
0.000163478
0.000333858
0.000494953
0.000580156
0.000592032
0.000558404
0.000507885
0.000455544
0.000402589
0.000348436
2.63055e-05
0.000157617
0.000327515
0.000499482
0.000609488
0.000638147
0.00060596
0.000553255
0.000500054
0.000446921
0.000393803
2.79388e-05
0.000155127
0.000326527
0.000501954
0.000624969
0.000671657
0.000653836
0.000605926
0.000553551
0.000503646
0.000453197
2.92136e-05
0.000152955
0.000325308
0.000501836
0.000634557
0.000696895
0.000693244
0.000653384
0.000605758
0.000563547
0.000526723
3.01277e-05
0.000150218
0.000321811
0.000497631
0.000637571
0.000714338
0.000726767
0.000698629
0.00065824
0.000625126
0.000606186
3.04134e-05
0.000145517
0.000313868
0.000487318
0.000632604
0.000722726
0.000752242
0.000738488
0.000707319
0.000682887
0.000679079
3.00001e-05
0.000137339
0.000299808
0.000468918
0.000617626
0.000719921
0.000766991
0.000769688
0.000749411
0.000732712
0.000741817
2.89459e-05
0.000125834
0.00027834
0.000439852
0.000589823
0.000703283
0.000767992
0.000788775
0.000780993
0.000770793
0.000787504
2.73783e-05
0.000114854
0.000254521
0.000406346
0.000552497
0.000672053
0.000752443
0.000792454
0.000799169
0.000794665
0.000813312
2.53937e-05
0.000105363
0.00023246
0.000373271
0.000512499
0.00063345
0.000724511
0.000780494
0.0008018
0.000802863
0.000821584
2.32583e-05
9.80859e-05
0.000214083
0.000343745
0.000474178
0.000592942
0.000689924
0.000757594
0.000791318
0.000798032
0.000809636
2.12407e-05
9.4017e-05
0.000201115
0.000320407
0.000441434
0.000555639
0.000654459
0.000729052
0.000771608
0.000783287
0.000787277
1.95456e-05
9.20358e-05
0.000192416
0.000303141
0.000415764
0.000524663
0.000622475
0.000699638
0.000746738
0.000761336
0.000759387
1.81844e-05
9.0587e-05
0.000186231
0.000290915
0.000397277
0.000501355
0.000596509
0.000672824
0.000720383
0.000735344
0.000728988
1.69711e-05
8.87546e-05
0.000181454
0.000282569
0.000384971
0.000485213
0.000576972
0.00065021
0.000695059
0.000707855
0.000697446
1.56792e-05
8.57222e-05
0.000176503
0.000275629
0.000375675
0.000473022
0.000561416
0.000630783
0.000671307
0.000680325
0.000666166
1.41281e-05
8.03493e-05
0.000168614
0.000265704
0.000363719
0.000458645
0.000544318
0.000610772
0.000647895
0.000653542
0.000636689
1.21852e-05
7.12979e-05
0.000154388
0.000247346
0.000341948
0.000434005
0.000517771
0.000583788
0.0006213
0.00062701
0.000609378
9.823e-06
5.88745e-05
0.000131595
0.00021584
0.000303795
0.000391446
0.000473698
0.000542018
0.000585341
0.000597714
0.00058245
6.98851e-06
3.95315e-05
9.67547e-05
0.00016793
0.000246199
0.000327581
0.000407612
0.000479165
0.000532403
0.000559384
0.000555539
4.31898e-06
3.45099e-05
7.77005e-05
0.000134029
0.00019799
0.000266821
0.000337278
0.000404473
0.000461706
0.00050241
0.00051699
3.84718e-05
0.000252162
0.000389058
0.000466755
0.000504816
0.000526004
0.000548998
0.000570204
0.000577199
0.000558037
0.000512758
2.79121e-05
0.000222743
0.000387069
0.000480676
0.000521907
0.000538351
0.000549734
0.00056037
0.000561904
0.000543011
0.000498664
2.36111e-05
0.000198277
0.000364402
0.000473654
0.000526162
0.000545504
0.000553899
0.000559965
0.000558946
0.000541268
0.000499682
2.25931e-05
0.000187541
0.000348973
0.000465161
0.000526843
0.000550568
0.000558969
0.000563999
0.000562828
0.000545839
0.000504146
2.24903e-05
0.000175099
0.000336498
0.000459745
0.000530085
0.00055834
0.000565277
0.000565053
0.000556881
0.00053377
0.000491737
2.28383e-05
0.000166288
0.00031966
0.000443359
0.00052143
0.000557678
0.000567965
0.000568428
0.000562963
0.000545512
0.000508304
2.35129e-05
0.00016283
0.000310513
0.00042885
0.000506079
0.000546217
0.000562122
0.000567056
0.000564131
0.000547535
0.000509185
2.44075e-05
0.000160323
0.000303837
0.000417338
0.000492726
0.000534348
0.000553813
0.000562644
0.000563548
0.000551665
0.00051926
2.52326e-05
0.000158127
0.000298078
0.000407352
0.000480302
0.000522179
0.000544157
0.000556661
0.000561537
0.000552928
0.000520853
2.58417e-05
0.00015513
0.000292049
0.000398135
0.000469131
0.00051107
0.000534959
0.000550354
0.000557934
0.000550155
0.00051553
2.63397e-05
0.000151765
0.000285994
0.000389703
0.000459377
0.00050153
0.000526996
0.000544607
0.000554217
0.00054838
0.000519202
2.67817e-05
0.00014887
0.000280748
0.000382473
0.000451174
0.000493677
0.000520581
0.000540088
0.000551492
0.000547265
0.000518806
2.70295e-05
0.000145785
0.000275749
0.000376084
0.00044437
0.000487578
0.000516022
0.000537366
0.000550384
0.000546776
0.000515673
2.70571e-05
0.000141762
0.000270097
0.000369909
0.000438643
0.000483164
0.00051342
0.000536619
0.000551057
0.000548079
0.000518681
2.688e-05
0.000137573
0.000264428
0.000364162
0.00043392
0.000480264
0.000512636
0.000537751
0.000553407
0.00055027
0.000517699
2.64539e-05
0.000132786
0.000258289
0.00035847
0.000429962
0.00047878
0.00051368
0.000540857
0.000557658
0.000554128
0.000519488
2.57841e-05
0.000126624
0.000250672
0.000352046
0.000426273
0.000478484
0.000516511
0.000546014
0.000564025
0.000560095
0.000523711
2.47634e-05
0.000119278
0.000241416
0.000344384
0.000422232
0.000478816
0.000520721
0.000553002
0.000572589
0.000568511
0.000528308
2.34001e-05
0.000109171
0.00022784
0.000332617
0.000415044
0.00047739
0.000524855
0.000560532
0.000582474
0.000579543
0.000537879
2.16574e-05
9.61396e-05
0.000209043
0.000315072
0.000401969
0.000469176
0.000519891
0.000557205
0.0005801
0.000578605
0.000539379
1.94725e-05
8.01714e-05
0.000183938
0.00029009
0.000381197
0.000452662
0.000504542
0.00053897
0.000556439
0.000551122
0.000515644
1.68244e-05
6.2199e-05
0.000154414
0.000257388
0.000351217
0.000426075
0.000478197
0.000507794
0.000516243
0.000502436
0.000466
1.35291e-05
4.77102e-05
0.000123297
0.000218609
0.000310621
0.000385717
0.000437272
0.000463437
0.000465361
0.000444853
0.000405937
9.99221e-06
4.72753e-05
0.000108505
0.000178601
0.000246529
0.000307494
0.000353556
0.000379586
0.000384024
0.000368086
0.000336478
3.38598e-05
0.000119241
0.000200878
0.000281958
0.000354403
0.000420558
0.000515048
0.000577439
0.000618308
0.00059937
0.000550506
2.19207e-05
5.99198e-05
0.000111561
0.000167194
0.000221228
0.000268258
0.000308347
0.000371306
0.000555383
0.000638887
0.000599049
1.5936e-05
5.79382e-05
8.53981e-05
0.000120246
0.00015909
0.000195661
0.000223582
0.000251419
0.000312084
0.000483259
0.000629581
1.76958e-05
8.22088e-05
0.000103587
0.000117825
0.000138278
0.000161883
0.000182003
0.000197359
0.00021657
0.000272347
0.000441192
2.05836e-05
9.18799e-05
0.000175631
0.000172047
0.00016268
0.000162139
0.000167077
0.000172198
0.000176562
0.0001905
0.000251176
2.37866e-05
9.35791e-05
0.000210221
0.000285153
0.000255024
0.000214468
0.000187032
0.000171473
0.000162061
0.000158301
0.000173823
2.70828e-05
9.82795e-05
0.000227315
0.000354691
0.0003981
0.000335814
0.000261202
0.000206118
0.000171288
0.000150362
0.000144221
3.03869e-05
0.000106015
0.000239864
0.00039082
0.000502836
0.000494859
0.00039651
0.000290126
0.000212464
0.000164028
0.000138199
3.3433e-05
0.000116772
0.000253953
0.00040851
0.000545826
0.00062701
0.000561584
0.000421728
0.00029136
0.000202132
0.000150352
3.61136e-05
0.000130032
0.000270518
0.000418212
0.000554321
0.000665361
0.000685812
0.000564942
0.000397609
0.000262899
0.000178368
3.83612e-05
0.000145873
0.000288851
0.000423388
0.000543691
0.000656505
0.000737909
0.000678561
0.000506333
0.000335598
0.000217539
4.02973e-05
0.000160722
0.000305758
0.000425126
0.000522773
0.000619997
0.000720183
0.000734324
0.000588887
0.000401957
0.000258708
4.18469e-05
0.000176277
0.000321232
0.000425051
0.000498622
0.000572265
0.000668273
0.000733319
0.000629499
0.000444893
0.000289957
4.30483e-05
0.000189746
0.000332336
0.000422299
0.000474721
0.000523789
0.000598123
0.000679908
0.00063017
0.000456588
0.000304494
4.37818e-05
0.00020104
0.00033996
0.000416849
0.000451251
0.000478953
0.00052487
0.000580594
0.000593384
0.000439275
0.000300263
4.4002e-05
0.000211968
0.000346477
0.00041034
0.000427804
0.000435235
0.000455033
0.000481353
0.000488297
0.000415926
0.000287914
4.36952e-05
0.00022299
0.000353553
0.000405275
0.000407965
0.000398727
0.000398692
0.000404255
0.000401802
0.000370962
0.000286561
4.27425e-05
0.000234493
0.000363062
0.000404556
0.000395953
0.000376235
0.000366198
0.000363568
0.000358913
0.000340539
0.000295917
4.1108e-05
0.000247242
0.000377361
0.000411115
0.000393512
0.00036687
0.00035265
0.000349118
0.000349216
0.00034569
0.00033429
3.88086e-05
0.00026383
0.000392337
0.000416897
0.000387386
0.000349397
0.000325371
0.000306662
0.000297632
0.00029052
0.000286926
3.22867e-05
0.0002414
0.000361035
0.000389037
0.000357687
0.000304789
0.000243892
0.00020582
0.000185559
0.000174844
0.000159046
2.53928e-05
0.000198281
0.000300667
0.000329666
0.000280436
0.000197338
0.000151336
0.000127877
0.000115616
0.000109316
0.000102653
1.64614e-05
9.33348e-05
0.000121358
0.000112023
9.0476e-05
8.09059e-05
8.04825e-05
8.62302e-05
9.48317e-05
0.000102499
0.000105704
7.76817e-06
1.02767e-05
1.61574e-05
2.58241e-05
4.1419e-05
6.43427e-05
9.32605e-05
0.000123578
0.000148967
0.000164092
0.00016706
2.56929e-05
6.56348e-05
6.34921e-05
6.45687e-05
6.26248e-05
5.68122e-05
5.32717e-05
5.25441e-05
5.37865e-05
5.67562e-05
6.19246e-05
2.2603e-05
6.59247e-05
5.7946e-05
6.65614e-05
6.51933e-05
5.94581e-05
5.54293e-05
5.46399e-05
5.63969e-05
6.04651e-05
6.73548e-05
2.34604e-05
6.74398e-05
5.26812e-05
6.8284e-05
6.62935e-05
6.13623e-05
5.7001e-05
5.61624e-05
5.84111e-05
6.38096e-05
7.36778e-05
2.61481e-05
6.31244e-05
5.03808e-05
6.8147e-05
6.5631e-05
6.22645e-05
5.76024e-05
5.69244e-05
5.95782e-05
6.61699e-05
7.87787e-05
2.9271e-05
5.79608e-05
4.9041e-05
6.59157e-05
6.42821e-05
6.22893e-05
5.72978e-05
5.69332e-05
5.98184e-05
6.71845e-05
8.13925e-05
3.21574e-05
5.40388e-05
4.78196e-05
6.29827e-05
6.28952e-05
6.15431e-05
5.63846e-05
5.62939e-05
5.91793e-05
6.68496e-05
8.16071e-05
3.47846e-05
5.10881e-05
4.65927e-05
6.02095e-05
6.16415e-05
6.0186e-05
5.52209e-05
5.5153e-05
5.78582e-05
6.5515e-05
8.06771e-05
3.71928e-05
4.96549e-05
4.54302e-05
5.78771e-05
6.05208e-05
5.85632e-05
5.39497e-05
5.36669e-05
5.60608e-05
6.33494e-05
7.76771e-05
3.91666e-05
4.90893e-05
4.44334e-05
5.60648e-05
5.95002e-05
5.70051e-05
5.26313e-05
5.19955e-05
5.39689e-05
6.06402e-05
7.39968e-05
4.05812e-05
4.87468e-05
4.30702e-05
5.45378e-05
5.86738e-05
5.56766e-05
5.13502e-05
5.0264e-05
5.17161e-05
5.75791e-05
6.96542e-05
4.15701e-05
4.87044e-05
4.09726e-05
5.1426e-05
5.70581e-05
5.45017e-05
5.01771e-05
4.85486e-05
4.94295e-05
5.43209e-05
6.47901e-05
4.21098e-05
4.93775e-05
3.93756e-05
4.76867e-05
5.4081e-05
5.29584e-05
4.89961e-05
4.68747e-05
4.71956e-05
5.09649e-05
5.96715e-05
4.20803e-05
5.04565e-05
3.82919e-05
4.34944e-05
4.95923e-05
5.05524e-05
4.7632e-05
4.52602e-05
4.50855e-05
4.77364e-05
5.45655e-05
4.15376e-05
5.17047e-05
3.78603e-05
3.92359e-05
4.37632e-05
4.65781e-05
4.56036e-05
4.35911e-05
4.30826e-05
4.47297e-05
4.98105e-05
4.04212e-05
5.34589e-05
3.84292e-05
3.61869e-05
3.82233e-05
4.12735e-05
4.232e-05
4.14776e-05
4.10581e-05
4.19606e-05
4.55074e-05
3.87529e-05
5.55311e-05
3.99417e-05
3.44815e-05
3.37715e-05
3.55218e-05
3.7485e-05
3.82178e-05
3.85724e-05
3.92482e-05
4.1624e-05
3.66297e-05
5.76361e-05
4.24532e-05
3.42263e-05
3.08451e-05
3.04698e-05
3.17389e-05
3.32892e-05
3.47909e-05
3.60027e-05
3.7856e-05
3.39263e-05
5.98892e-05
4.60228e-05
3.56542e-05
2.98644e-05
2.72299e-05
2.67618e-05
2.75897e-05
2.93445e-05
3.13031e-05
3.34017e-05
3.07157e-05
6.205e-05
5.06865e-05
3.89311e-05
3.10019e-05
2.62343e-05
2.37885e-05
2.29644e-05
2.35467e-05
2.51385e-05
2.73607e-05
2.7074e-05
6.37311e-05
5.64135e-05
4.43488e-05
3.46328e-05
2.7848e-05
2.34527e-05
2.07901e-05
1.95769e-05
1.95961e-05
2.06761e-05
2.30653e-05
6.43009e-05
6.29277e-05
5.22891e-05
4.15109e-05
3.28703e-05
2.64975e-05
2.19408e-05
1.88702e-05
1.70309e-05
1.62608e-05
1.87914e-05
6.32196e-05
6.9535e-05
6.30093e-05
5.2851e-05
4.30035e-05
3.46947e-05
2.80484e-05
2.29236e-05
1.91083e-05
1.64067e-05
1.41597e-05
5.71688e-05
7.29759e-05
7.44e-05
6.86686e-05
6.01725e-05
5.12163e-05
4.28712e-05
3.55772e-05
2.94717e-05
2.45188e-05
9.59681e-06
5.23335e-05
6.63748e-05
7.31242e-05
7.48493e-05
7.30366e-05
6.89214e-05
6.34591e-05
5.74077e-05
5.13345e-05
4.55821e-05
2.33033e-05
6.76331e-05
6.53411e-05
6.50462e-05
6.20895e-05
5.53129e-05
5.12124e-05
4.99909e-05
5.03991e-05
5.18872e-05
5.43985e-05
1.91969e-05
5.91451e-05
5.58682e-05
6.49472e-05
6.18374e-05
5.48554e-05
5.01899e-05
4.83474e-05
4.82237e-05
4.91451e-05
5.08902e-05
2.02883e-05
5.73769e-05
4.86163e-05
6.60642e-05
6.26236e-05
5.50944e-05
4.95909e-05
4.71155e-05
4.64538e-05
4.67704e-05
4.77341e-05
2.33424e-05
5.1929e-05
4.56848e-05
6.60236e-05
6.26896e-05
5.56253e-05
5.00216e-05
4.7567e-05
4.69214e-05
4.71923e-05
4.79006e-05
2.69382e-05
4.61371e-05
4.45124e-05
6.45969e-05
6.23271e-05
5.62623e-05
5.10648e-05
4.90457e-05
4.8891e-05
4.97228e-05
5.09676e-05
3.03597e-05
4.18565e-05
4.37564e-05
6.27171e-05
6.20354e-05
5.69816e-05
5.23906e-05
5.10605e-05
5.17356e-05
5.36905e-05
5.64643e-05
3.34939e-05
3.8964e-05
4.30987e-05
6.10825e-05
6.19229e-05
5.77408e-05
5.38151e-05
5.32726e-05
5.48256e-05
5.79452e-05
6.21931e-05
3.63712e-05
3.69607e-05
4.25027e-05
5.98396e-05
6.19498e-05
5.85385e-05
5.52685e-05
5.54939e-05
5.79522e-05
6.2508e-05
6.93867e-05
3.88289e-05
3.55645e-05
4.19723e-05
5.89881e-05
6.21468e-05
5.92918e-05
5.66963e-05
5.75537e-05
6.08207e-05
6.67548e-05
7.63167e-05
4.08826e-05
3.45851e-05
4.15169e-05
5.84508e-05
6.25358e-05
5.99768e-05
5.8018e-05
5.92998e-05
6.31414e-05
7.00595e-05
8.16246e-05
4.25382e-05
3.40032e-05
4.11118e-05
5.81175e-05
6.30634e-05
6.06477e-05
5.91535e-05
6.06259e-05
6.47186e-05
7.19825e-05
8.39184e-05
4.38175e-05
3.36046e-05
4.07103e-05
5.78829e-05
6.36699e-05
6.12868e-05
6.00877e-05
6.15049e-05
6.55218e-05
7.25625e-05
8.40034e-05
4.45469e-05
3.29978e-05
3.93088e-05
5.66877e-05
6.38873e-05
6.1828e-05
6.08802e-05
6.20562e-05
6.57587e-05
7.21874e-05
8.24898e-05
4.47468e-05
3.20582e-05
3.63675e-05
5.35467e-05
6.3036e-05
6.21227e-05
6.15186e-05
6.23625e-05
6.55663e-05
7.11381e-05
7.99934e-05
4.43586e-05
3.11271e-05
3.30456e-05
4.87767e-05
6.07043e-05
6.1857e-05
6.18884e-05
6.24406e-05
6.50201e-05
6.95926e-05
7.68724e-05
4.33472e-05
3.02017e-05
2.97777e-05
4.26941e-05
5.62735e-05
6.03819e-05
6.16849e-05
6.22337e-05
6.41847e-05
6.77268e-05
7.34785e-05
4.17042e-05
2.92754e-05
2.68625e-05
3.60418e-05
4.93789e-05
5.66463e-05
6.01548e-05
6.14103e-05
6.30089e-05
6.56566e-05
7.00631e-05
3.93409e-05
2.83451e-05
2.45379e-05
2.99133e-05
4.07738e-05
4.97596e-05
5.58933e-05
5.89512e-05
6.09918e-05
6.32236e-05
6.66478e-05
3.62066e-05
2.72983e-05
2.28026e-05
2.49878e-05
3.21262e-05
4.01957e-05
4.75987e-05
5.28791e-05
5.64864e-05
5.93336e-05
6.25649e-05
3.22678e-05
2.59245e-05
2.14983e-05
2.14245e-05
2.49677e-05
3.02078e-05
3.62074e-05
4.19059e-05
4.68424e-05
5.1057e-05
5.51478e-05
2.74813e-05
2.39187e-05
2.03303e-05
1.9026e-05
1.99414e-05
2.22049e-05
2.53447e-05
2.89411e-05
3.27261e-05
3.65934e-05
4.07114e-05
2.1861e-05
2.08488e-05
1.87515e-05
1.72525e-05
1.67576e-05
1.70109e-05
1.77957e-05
1.89425e-05
2.03436e-05
2.19618e-05
2.38807e-05
1.54994e-05
1.62589e-05
1.59408e-05
1.51682e-05
1.44769e-05
1.39689e-05
1.36338e-05
1.34384e-05
1.33518e-05
1.34392e-05
1.4454e-05
7.55884e-06
1.4241e-05
1.68615e-05
1.94311e-05
2.21212e-05
2.49404e-05
2.78733e-05
3.09011e-05
3.4027e-05
3.72754e-05
4.00704e-05
1.42063e-05
1.09597e-05
7.50153e-06
7.58298e-06
7.96857e-06
9.97541e-06
1.49408e-05
1.6836e-05
1.76865e-05
3.08211e-05
2.54705e-05
2.5859e-05
3.05779e-05
2.9422e-05
3.06762e-05
3.62576e-05
5.47039e-05
8.01459e-05
5.77971e-05
4.47833e-05
4.29487e-05
4.80614e-05
4.3491e-05
4.90336e-05
6.66999e-05
0.000102473
0.000141798
8.08305e-05
6.4508e-05
6.33828e-05
6.71459e-05
5.66587e-05
6.56929e-05
9.19417e-05
0.000137455
0.000181088
1.57337e-05
1.63054e-05
1.64125e-05
1.62999e-05
1.60799e-05
1.61391e-05
1.69825e-05
1.75823e-05
1.79648e-05
4.2209e-05
5.76541e-05
7.41575e-05
8.33425e-05
9.08871e-05
0.000101584
0.000114655
0.000108239
0.000100155
8.0782e-05
0.00010615
0.000125712
0.000134798
0.000139218
0.000147904
0.000169241
0.000162976
0.000159324
0.000108532
0.000136661
0.000154084
0.000158803
0.000155084
0.000157762
0.000183782
0.000178766
0.000188773
0.000195536
0.000229718
0.000229773
0.000238003
0.000168179
0.000229054
9.83278e-05
0.000229774
0.00022906
0.000250006
0.000157971
0.000229788
0.000248029
0.000237566
0.000123736
0.000229013
0.00023838
0.000237679
0.000229135
0.000230116
0.000242207
0.000107444
0.00022995
0.00024483
0.000229292
0.000237484
0.000248069
0.000106374
0.000379481
0.000249809
0.000238552
0.000250369
0.000241556
0.00022949
0.00025269
0.000229667
0.000244822
0.000229282
0.000242055
0.000229
2.2103e-05
0.000229528
0.000242596
0.00022993
0.000172783
0.000111452
0.000242615
9.61198e-05
0.000253514
0.000229749
0.000249251
0.000229022
0.00024317
0.000242449
0.000229589
0.000242739
9.66452e-05
0.000229029
0.000409639
0.000242944
4.43808e-05
0.000242994
0.000134405
0.000240542
3.36267e-05
0.000229667
0.000243337
0.000236579
0.000229711
0.000249388
0.000232003
0.000246945
0.000243154
0.000262073
0.000238859
0.000239703
4.31348e-05
0.000229732
0.000153076
0.000216611
0.000241162
0.000241246
0.000229254
0.000229798
0.000252452
0.000242772
0.000400494
0.000242469
7.21753e-05
0.000244055
0.00022951
0.000229073
2.78187e-05
0.000241198
0.000214406
0.000121132
0.000238535
0.000252543
0.000102185
0.000251395
0.00025634
8.59307e-05
0.00024831
0.000245839
0.000233452
0.000229614
0.000239146
0.000229871
0.000247536
0.000246155
0.000229477
0.000229579
0.000234146
0.000244576
0.000241431
0.000228956
0.000228981
0.000228414
0.000229609
0.000248129
0.000246808
0.000260911
0.000250735
0.000238485
0.000102329
0.000256897
0.000241047
0.000239294
0.000240652
0.00024295
0.000229245
0.000242563
9.16735e-05
0.000241843
0.000229755
0.000253091
3.47797e-05
0.000245177
0.000250028
0.000254541
0.000242897
0.000233796
0.000149251
0.000191905
0.000228994
0.000253078
0.000218062
0.000235009
0.000252675
0.000215293
0.000229926
0.000229184
0.000252576
0.000258928
0.000240939
0.000247351
0.000241713
3.67285e-05
0.000232592
0.000228821
0.000239067
0.000248205
0.000244646
0.000228989
0.000242776
0.000247838
5.86482e-05
0.000254797
0.000259147
3.55685e-05
0.000240313
0.000238195
0.000259291
0.000247258
0.000250628
0.000240957
0.000236202
0.000254173
0.000182688
0.000228147
0.00023335
6.96842e-05
0.00022994
0.00024871
0.000229616
0.00024684
0.00023143
0.000228041
0.000229679
0.000148322
0.000245916
0.000240894
0.000229478
2.35852e-05
0.000229745
0.000228939
0.000229334
0.000154262
0.000243466
0.00023
0.000248498
0.00023024
0.000242964
0.000239616
0.000229809
0.000242336
0.00023924
0.000240648
0.0002294
0.000228735
0.00024352
0.000228921
0.000197039
0.000252666
0.000229341
0.00024845
0.000229446
0.000243569
0.000230767
0.000240602
0.000242886
0.000244465
0.000238167
0.000241613
0.000238401
0.000229049
0.000255681
0.000247435
0.000245584
0.000179449
3.72128e-05
0.000230027
0.000230406
0.000261473
0.000253763
0.000182235
0.000243777
0.00022989
0.000229759
0.000229735
0.000243696
0.000239783
0.000245311
2.6136e-05
0.000253101
0.000240949
0.000229416
0.000240439
0.000128296
0.00024051
0.000240384
0.000243561
0.000253688
0.00022901
0.000244325
0.000229211
0.000232039
0.000229232
0.000254642
0.000232065
0.000212727
0.00024818
0.000228257
0.000229678
0.000229454
0.000240403
0.000235431
0.000262984
0.00016056
0.000215128
0.000225323
0.000229451
0.000230367
0.000241829
0.000229085
0.000228611
0.00023817
0.000229273
0.000252829
0.000239931
0.000250591
0.00022977
0.000241176
0.000244293
0.000243878
0.000229052
0.000502362
0.000229803
0.000253029
0.000243005
0.000229824
0.000125138
0.000251067
0.000242913
0.000230009
0.000229291
0.000259561
0.000229678
0.000252828
0.000237539
0.000229316
0.000254715
0.000254356
0.000250066
0.000229713
0.000246832
0.000229744
0.000253148
6.53782e-05
0.000228908
8.19449e-05
0.000229625
0.000247342
0.000241616
7.92703e-05
0.000256044
0.000240523
0.000174902
0.000245962
0.000250983
0.000229047
0.00024502
0.000228866
0.000233087
0.000187488
0.000242875
0.00022916
0.000239015
0.000230584
0.000247062
0.00025055
0.000126475
3.30493e-05
0.000229885
0.000248181
0.000162761
0.000241263
0.000229718
0.000229372
0.000251977
0.000129515
0.000243792
0.000230583
0.000247231
0.000231635
0.00025313
0.000238036
0.000228909
0.000245396
0.000239623
6.00504e-05
0.000249692
0.000213978
0.000221146
0.000152007
0.000230036
0.000242841
0.00022966
0.00022993
0.000245546
0.000173617
0.00023847
0.000229464
0.000229322
0.000229866
5.71432e-05
0.000239427
0.000246886
5.38816e-05
0.000251225
0.000229247
0.000253706
0.000154605
0.000238454
0.000170225
0.000229817
0.000184487
0.000252178
0.000229041
0.000217263
0.000242803
0.000228943
0.000255389
0.000229057
0.000240509
0.000241135
0.000251088
0.000238283
0.000239254
4.5223e-05
0.000229236
0.000117653
0.000238866
0.000264755
0.00024175
3.1065e-05
0.000229285
0.000224162
0.000229802
0.000242201
0.000254348
0.000228904
0.000229934
0.000242739
0.000243177
1.97627e-05
0.000111505
0.000252134
0.000230224
0.000245285
0.000255211
0.000229401
0.000241251
0.000240682
0.000248197
0.000246833
0.00024553
0.000267812
0.000239281
0.000112509
0.000227931
0.000233408
7.55126e-05
0.000247365
0.000244366
0.000245366
0.000259937
8.75291e-05
0.000247241
5.31086e-05
0.00022928
0.000255064
0.000239718
0.000248307
0.000254117
0.000243177
0.000247228
0.000249649
0.000238453
0.000230033
0.000241716
0.000357357
0.000236657
0.000251988
0.000244913
0.000244298
0.00024561
6.51879e-05
0.000228877
0.000248996
0.000229295
0.000229748
0.000229433
8.3439e-05
0.000201105
5.31341e-05
0.000240116
0.000242453
9.42745e-05
0.000229674
0.000228894
0.000240701
0.000238516
0.000244515
0.000256027
3.93559e-05
4.23067e-05
2.96836e-05
2.93526e-05
0.000248624
0.000236581
0.000255991
0.000207236
4.4003e-05
0.000252112
0.000229785
0.000229293
8.05688e-05
0.000222936
0.000230813
0.000229057
0.000234387
0.000232968
5.88768e-05
0.000229886
0.000250177
0.000125168
0.00017896
0.000244073
0.000228764
0.000182205
0.000228957
0.000251881
0.000229025
0.000242154
0.000224887
0.000229652
0.000235216
0.000192136
0.000259558
0.000239274
0.000238812
0.000229707
0.00022943
0.000158411
0.000243048
0.000247471
0.000251086
7.60815e-05
0.000229767
0.000244294
0.00012835
4.72033e-05
0.000247383
0.000256366
0.000243213
0.000243694
0.000235437
0.000229142
0.000227296
0.000247483
0.000229764
0.000229174
0.000229759
0.000236816
0.000243198
0.000229684
0.000228778
0.000247697
0.000229271
5.99177e-05
0.000252369
0.000253515
0.000227634
5.31933e-05
0.000230007
0.000229306
0.000229828
2.56542e-05
0.000213937
0.000229352
0.000229221
0.000238509
0.000229761
0.000236826
0.000229732
0.000243021
0.000252706
4.4632e-05
0.000242264
0.00022094
0.000107332
0.00024416
0.000222498
0.00023736
0.000251559
0.000229819
0.000243071
8.46964e-05
0.000226257
0.000239342
0.000233034
0.000105775
0.000229318
0.000230176
0.000229687
0.000245626
0.000242773
0.000116107
0.000229658
0.000228977
0.000244174
0.000234289
0.000241177
0.000240903
0.000253368
0.000178352
0.000229108
0.000113457
0.000229263
0.000243854
0.000229462
0.000239239
0.000234504
0.000251076
9.20217e-05
0.00024821
0.000229849
0.00022998
0.000219411
0.00022891
0.000230814
0.000241799
0.000242705
0.00024591
0.00013303
0.000240045
0.000244531
0.00022923
0.000229564
0.000116619
0.000240175
0.000168202
0.000230039
0.000229352
7.78019e-05
0.000232407
0.000247163
0.000250342
0.000248286
0.000240156
0.000243598
0.000242559
0.000161356
0.000244632
0.000249836
0.000229053
0.000246478
0.000240376
0.000229379
0.000129174
0.000243552
0.000228887
0.000228903
3.37741e-05
0.000250031
0.000228876
0.000150295
0.000229718
0.00023596
0.000240285
0.000242711
0.000195193
0.000240162
0.000236458
6.74818e-05
0.000249607
0.000123115
0.000247964
0.00022534
5.07743e-05
0.000242713
0.000196335
0.000229772
0.000205191
0.000180174
0.00024237
0.000205698
0.000247311
0.00023949
0.000243078
0.000121839
0.000231898
0.000238631
0.000229057
0.000230321
0.000229495
0.000225042
0.000251664
0.000249304
0.000241688
0.00025621
0.000233105
0.000229797
0.000239623
6.24873e-05
0.000168322
0.00024212
0.000235005
0.000215346
0.000241201
0.000248164
0.00016214
0.000236562
0.000237943
0.000247552
0.000229088
0.0002424
0.000229933
0.000241249
0.000244599
0.000240192
0.000108256
0.000238203
0.000251216
0.000229828
0.000165598
0.000238145
9.37665e-05
0.000240967
0.000228889
0.000246945
0.000229816
0.000199947
0.000209526
0.000249744
0.000229652
0.000229046
0.000229037
0.000248495
0.000245078
0.000229541
0.000221079
0.000229134
0.000247296
0.000231945
0.000245397
0.000242847
2.87515e-05
0.000242995
0.000247036
0.000241354
0.000241556
0.000247198
0.000241222
8.70627e-05
0.000229215
0.000240471
0.000229455
0.000247814
8.7805e-05
0.000252753
0.000161898
0.000237515
0.000233199
0.000236981
0.000249435
0.000245049
0.000229656
0.000240839
0.000243233
0.000243376
0.000242288
0.000169385
0.000242938
0.000245696
0.000260605
0.000240161
0.000245202
0.000222411
0.000229568
0.000238701
0.000227108
0.000229517
6.03875e-05
0.000202079
0.000261199
0.00023816
0.000228977
0.000250978
0.000252024
0.000218922
0.00025276
0.000238463
0.000229631
0.000241188
0.000249979
0.000242684
0.000243228
0.000243857
0.00024808
0.000228117
0.000247439
9.60568e-05
0.000229109
0.000238272
0.000217108
0.00024563
0.000253459
3.70513e-05
0.000254497
0.000241249
0.000242303
0.000257684
0.000222806
0.000252139
0.000229014
0.000237433
3.39353e-05
0.000230048
0.00022955
0.00025567
0.000119644
0.000243563
0.000239851
0.000229796
0.000240654
0.000249922
0.000229565
0.000229638
0.000229786
0.0002294
0.000252309
0.000236976