/*--------------------------------*- C++ -*----------------------------------*\
| =========                 |                                                 |
| \\      /  F ield         | OpenFOAM: The Open Source CFD Toolbox           |
|  \\    /   O peration     | Version:  3.0.1                                 |
|   \\  /    A nd           | Web:      www.OpenFOAM.org                      |
|    \\/     M anipulation  |                                                 |
\*---------------------------------------------------------------------------*/
FoamFile
{
    version     2.0;
    format      ascii;
    class       surfaceScalarField;
    location    "0.311135";
    object      phi;
}
// * * * * * * * * * * * * * * * * * * * * * * * * * * * * * * * * * * * * * //

dimensions      [0 3 -1 0 0 0 0];

internalField   nonuniform List<scalar> 
32369
(
4.29387e-07
1.1529e-05
-1.19584e-05
2.35695e-07
1.14902e-05
-1.12965e-05
-1.66386e-06
1.46152e-05
-1.27156e-05
-4.70771e-06
1.77166e-05
-1.46728e-05
-8.46195e-06
2.08496e-05
-1.70953e-05
-1.27624e-05
2.43356e-05
-2.00352e-05
-1.75556e-05
2.84645e-05
-2.36713e-05
-2.30113e-05
3.37257e-05
-2.82699e-05
-2.93716e-05
4.05034e-05
-3.41431e-05
-3.69718e-05
4.92756e-05
-4.16755e-05
6.0655e-05
-5.13069e-05
-4.63199e-05
3.98335e-06
7.54562e-06
5.88557e-06
9.58795e-06
6.33234e-06
1.41684e-05
5.57474e-06
1.84742e-05
3.48414e-06
2.29402e-05
8.69164e-08
2.77329e-05
-4.39503e-06
3.29465e-05
-9.78241e-06
3.9113e-05
-1.61568e-05
4.68778e-05
-2.38488e-05
5.69676e-05
7.00976e-05
-3.32914e-05
3.09806e-06
4.44756e-06
4.84952e-06
7.8365e-06
6.5239e-06
1.2494e-05
7.48615e-06
1.7512e-05
7.30707e-06
2.31192e-05
5.80616e-06
2.92338e-05
2.97771e-06
3.57749e-05
-1.00385e-06
4.30946e-05
-6.01362e-06
5.18876e-05
-1.21688e-05
6.31228e-05
7.78491e-05
-1.99203e-05
2.13415e-06
2.31342e-06
3.97222e-06
5.99843e-06
5.85306e-06
1.06132e-05
7.39912e-06
1.59659e-05
8.38537e-06
2.2133e-05
8.45751e-06
2.91616e-05
7.40341e-06
3.6829e-05
5.22889e-06
4.52691e-05
2.07319e-06
5.50433e-05
-1.98595e-06
6.71819e-05
8.29342e-05
-7.07105e-06
1.48805e-06
8.25366e-07
3.30352e-06
4.18295e-06
5.28468e-06
8.63204e-06
7.18636e-06
1.40642e-05
8.74598e-06
2.05734e-05
9.81238e-06
2.80952e-05
1.01265e-05
3.65149e-05
9.57261e-06
4.5823e-05
8.21147e-06
5.64044e-05
6.22766e-06
6.91658e-05
8.54851e-05
3.67676e-06
1.1082e-06
-2.82832e-07
2.86873e-06
2.42242e-06
4.85687e-06
6.64389e-06
6.90946e-06
1.20116e-05
8.88641e-06
1.85964e-05
1.06034e-05
2.63783e-05
1.18552e-05
3.52631e-05
1.25404e-05
4.51377e-05
1.26632e-05
5.62817e-05
1.24098e-05
6.94192e-05
8.59029e-05
1.1992e-05
6.18013e-07
-9.00845e-07
2.12978e-06
9.10657e-07
4.10886e-06
4.66481e-06
6.30998e-06
9.81053e-06
8.5595e-06
1.63469e-05
1.07219e-05
2.42159e-05
1.26746e-05
3.33104e-05
1.42825e-05
4.35298e-05
1.55625e-05
5.50018e-05
1.66986e-05
6.8283e-05
8.4616e-05
1.79855e-05
2.83046e-07
-1.18389e-06
1.31845e-06
-1.24743e-07
3.07816e-06
2.90509e-06
5.27701e-06
7.61168e-06
7.66347e-06
1.39604e-05
1.01177e-05
2.17616e-05
1.25432e-05
3.08849e-05
1.48544e-05
4.12186e-05
1.7054e-05
5.28021e-05
1.93321e-05
6.6005e-05
8.19211e-05
2.2027e-05
9.56083e-08
-1.2795e-06
6.37535e-07
-6.6667e-07
2.04083e-06
1.5018e-06
4.04365e-06
5.60886e-06
6.39827e-06
1.16058e-05
8.97969e-06
1.91802e-05
1.17036e-05
2.8161e-05
1.45115e-05
3.84107e-05
1.74237e-05
4.989e-05
2.05526e-05
6.2876e-05
7.82507e-05
2.42229e-05
5.26131e-09
-1.28476e-06
2.63975e-07
-9.25383e-07
1.18679e-06
5.78984e-07
2.81678e-06
3.97888e-06
4.98228e-06
9.44032e-06
7.54134e-06
1.66211e-05
1.04039e-05
2.52984e-05
1.35327e-05
3.52819e-05
1.69359e-05
4.64868e-05
2.07312e-05
5.90807e-05
7.37977e-05
2.51842e-05
-8.17691e-08
-1.20299e-06
-6.76374e-08
-9.39515e-07
3.63887e-07
1.4746e-07
1.57439e-06
2.76837e-06
3.4455e-06
7.56921e-06
5.83894e-06
1.42277e-05
8.70264e-06
2.24347e-05
1.20118e-05
3.19727e-05
1.57811e-05
4.27175e-05
2.00902e-05
5.47715e-05
6.86594e-05
2.52286e-05
-1.52001e-07
-1.05099e-06
-3.07452e-07
-7.84064e-07
-2.51325e-07
9.13324e-08
4.45477e-07
2.07157e-06
1.92689e-06
6.0878e-06
4.03053e-06
1.2124e-05
6.76933e-06
1.96959e-05
1.01503e-05
2.85918e-05
1.41922e-05
3.86756e-05
1.89532e-05
5.00106e-05
6.30728e-05
2.45398e-05
-2.16367e-07
-8.34623e-07
-4.75131e-07
-5.253e-07
-6.20577e-07
2.36779e-07
-3.84011e-07
1.83501e-06
6.75322e-07
5.02846e-06
2.45861e-06
1.03408e-05
4.99801e-06
1.71565e-05
8.35373e-06
2.5236e-05
1.25817e-05
3.44477e-05
1.77215e-05
4.48707e-05
5.6964e-05
2.38303e-05
-2.45013e-07
-5.89611e-07
-5.57621e-07
-2.12692e-07
-7.96221e-07
4.75379e-07
-8.04246e-07
1.84303e-06
-1.83007e-07
4.40723e-06
1.29117e-06
8.86658e-06
3.61555e-06
1.48321e-05
6.91854e-06
2.19331e-05
1.12626e-05
3.01036e-05
1.66738e-05
3.94595e-05
5.04848e-05
2.3153e-05
-2.34407e-07
-3.55204e-07
-5.7046e-07
1.2336e-07
-8.47865e-07
7.52784e-07
-9.76321e-07
1.97149e-06
-6.67422e-07
4.09833e-06
4.89692e-07
7.70947e-06
2.60449e-06
1.27173e-05
5.84091e-06
1.86966e-05
1.0291e-05
2.56535e-05
1.5959e-05
3.37916e-05
4.36432e-05
2.28006e-05
-2.09121e-07
-1.46082e-07
-5.24752e-07
4.38991e-07
-7.83998e-07
1.01203e-06
-9.41264e-07
2.12875e-06
-7.61633e-07
3.9187e-06
1.52036e-07
6.7958e-06
2.10466e-06
1.07647e-05
5.28134e-06
1.55199e-05
9.81792e-06
2.1117e-05
1.57679e-05
2.78416e-05
3.62758e-05
2.31353e-05
-1.55974e-07
9.892e-09
-4.24288e-07
7.07304e-07
-6.2712e-07
1.21486e-06
-7.51799e-07
2.25343e-06
-5.93246e-07
3.76014e-06
2.02656e-07
5.9999e-06
2.04034e-06
8.92704e-06
5.17903e-06
1.23813e-05
9.81773e-06
1.64783e-05
1.60039e-05
2.16555e-05
2.86866e-05
2.35931e-05
-1.08109e-07
1.18001e-07
-3.2246e-07
9.21656e-07
-4.67555e-07
1.35996e-06
-5.513e-07
2.33718e-06
-3.87802e-07
3.59665e-06
3.58312e-07
5.25378e-06
2.12534e-06
7.16001e-06
5.26625e-06
9.24034e-06
1.00385e-05
1.1706e-05
1.653e-05
1.5164e-05
2.04846e-05
2.4732e-05
-7.48204e-08
1.92822e-07
-2.40929e-07
1.08776e-06
-3.7962e-07
1.49865e-06
-4.74907e-07
2.43246e-06
-3.52406e-07
3.47415e-06
3.3802e-07
4.56336e-06
2.09042e-06
5.40762e-06
5.32251e-06
6.00824e-06
1.03368e-05
6.69168e-06
1.72458e-05
8.25494e-06
1.1724e-05
2.60064e-05
-8.2539e-08
2.75361e-07
-2.91857e-07
1.29708e-06
-5.33282e-07
1.74007e-06
-7.1166e-07
2.61084e-06
-6.66056e-07
3.42854e-06
9.70903e-08
3.80021e-06
2.11168e-06
3.39303e-06
5.74717e-06
2.37274e-06
1.11469e-05
1.29198e-06
1.8427e-05
9.74806e-07
2.47229e-06
2.76788e-05
-2.79159e-07
5.5452e-07
-5.33371e-07
1.55129e-06
-7.98142e-07
2.00484e-06
-7.99898e-07
2.6126e-06
-8.73208e-08
2.71597e-06
1.98776e-06
1.72513e-06
5.56397e-06
-1.83185e-07
1.03227e-05
-2.38597e-06
1.61343e-05
-4.51966e-06
2.33146e-05
-6.20543e-06
-6.52425e-06
3.23111e-05
-4.79895e-07
1.03441e-06
-5.33858e-07
1.60526e-06
-1.86918e-07
1.6579e-06
1.10156e-06
1.32412e-06
3.70546e-06
1.12068e-07
7.22969e-06
-1.7991e-06
1.10192e-05
-3.97273e-06
1.51021e-05
-6.46884e-06
1.99999e-05
-9.41746e-06
2.63719e-05
-1.25774e-05
-1.50762e-05
3.49238e-05
1.70779e-09
1.03271e-06
1.09028e-06
5.16686e-07
2.97061e-06
-2.2243e-07
5.58616e-06
-1.29143e-06
8.442e-06
-2.74377e-06
1.11298e-05
-4.48693e-06
1.3865e-05
-6.70789e-06
1.69394e-05
-9.54323e-06
2.06645e-05
-1.31426e-05
2.56013e-05
-1.75142e-05
-2.21995e-05
3.27247e-05
2.72175e-06
-1.68904e-06
4.76758e-06
-1.52914e-06
6.75242e-06
-2.20727e-06
8.67053e-06
-3.20955e-06
1.04875e-05
-4.56072e-06
1.23159e-05
-6.31534e-06
1.42346e-05
-8.62657e-06
1.63447e-05
-1.16534e-05
1.88146e-05
-1.56125e-05
2.19888e-05
-2.06883e-05
-2.68544e-05
2.66436e-05
-8.03687e-06
-3.92149e-06
-1.32304e-05
-6.10294e-06
-1.75343e-05
-8.41178e-06
-2.13364e-05
-1.08707e-05
-2.49773e-05
-1.34544e-05
-2.87512e-05
-1.62613e-05
-3.29241e-05
-1.94985e-05
-3.77434e-05
-2.34505e-05
-4.34372e-05
-2.84493e-05
-5.02397e-05
-3.4873e-05
-4.31738e-05
-5.83728e-05
-4.80259e-06
8.81095e-07
-9.59657e-06
-1.30895e-06
-1.43297e-05
-3.67868e-06
-1.89175e-05
-6.28282e-06
-2.34268e-05
-8.94512e-06
-2.80452e-05
-1.16428e-05
-3.30645e-05
-1.44792e-05
-3.87924e-05
-1.77227e-05
-4.5525e-05
-2.17167e-05
-5.3562e-05
-2.68361e-05
-3.34738e-05
-6.32619e-05
-2.23265e-06
3.11375e-06
-5.21222e-06
1.67061e-06
-9.21118e-06
3.20279e-07
-1.3788e-05
-1.70601e-06
-1.87178e-05
-4.01527e-06
-2.40125e-05
-6.34813e-06
-2.98207e-05
-8.67101e-06
-3.63809e-05
-1.11625e-05
-4.39812e-05
-1.41164e-05
-5.29151e-05
-1.79022e-05
-2.29124e-05
-6.34765e-05
-8.20219e-07
3.93397e-06
-2.5529e-06
3.4033e-06
-5.39351e-06
3.16088e-06
-9.26914e-06
2.16962e-06
-1.40086e-05
7.24187e-07
-1.94284e-05
-9.28379e-07
-2.55244e-05
-2.57495e-06
-3.24552e-05
-4.23165e-06
-4.04459e-05
-6.12576e-06
-4.97672e-05
-8.58084e-06
-1.18923e-05
-6.07873e-05
-3.32164e-07
4.26613e-06
-1.29673e-06
4.36786e-06
-2.97741e-06
4.84157e-06
-5.636e-06
4.82821e-06
-9.41072e-06
4.49891e-06
-1.42984e-05
3.95932e-06
-2.02478e-05
3.37445e-06
-2.72528e-05
2.77332e-06
-3.5392e-05
2.01347e-06
-4.48059e-05
8.33053e-07
-1.09724e-06
-5.5601e-05
-5.79999e-08
4.32413e-06
-5.92462e-07
4.90232e-06
-1.5869e-06
5.836e-06
-3.2861e-06
6.52741e-06
-5.91312e-06
7.12593e-06
-9.65668e-06
7.70287e-06
-1.46355e-05
8.35325e-06
-2.09317e-05
9.0695e-06
-2.86425e-05
9.72434e-06
-3.78927e-05
1.00832e-05
9.80133e-06
-4.87913e-05
1.28083e-07
4.19605e-06
-9.61716e-08
5.12658e-06
-6.01621e-07
6.34145e-06
-1.62211e-06
7.5479e-06
-3.38794e-06
8.89175e-06
-6.14671e-06
1.04616e-05
-1.01264e-05
1.23329e-05
-1.55024e-05
1.44455e-05
-2.23822e-05
1.66041e-05
-3.08621e-05
1.85631e-05
2.00084e-05
-4.10692e-05
1.95565e-07
4.00048e-06
1.83507e-07
5.13863e-06
3.24124e-08
6.49255e-06
-4.57355e-07
8.03767e-06
-1.48977e-06
9.92417e-06
-3.32488e-06
1.22968e-05
-6.25328e-06
1.52613e-05
-1.05536e-05
1.87459e-05
-1.64017e-05
2.24522e-05
-2.38866e-05
2.60481e-05
2.9195e-05
-3.30732e-05
2.15396e-07
3.78508e-06
3.5052e-07
5.00351e-06
4.49705e-07
6.39336e-06
3.57818e-07
8.12956e-06
-8.01501e-08
1.03621e-05
-1.08407e-06
1.33007e-05
-2.95825e-06
1.71355e-05
-6.09046e-06
2.18781e-05
-1.07614e-05
2.71231e-05
-1.70502e-05
3.23369e-05
3.7097e-05
-2.49522e-05
2.23089e-07
3.562e-06
4.56984e-07
4.76962e-06
7.37069e-07
6.11328e-06
9.36634e-07
7.92999e-06
9.53009e-07
1.03458e-05
6.30586e-07
1.36231e-05
-2.8895e-07
1.8055e-05
-2.22017e-06
2.38093e-05
-5.60005e-06
3.0503e-05
-1.06547e-05
3.73916e-05
4.38142e-05
-1.7372e-05
2.53953e-07
3.30804e-06
5.91816e-07
4.43175e-06
9.77525e-07
5.72757e-06
1.38729e-06
7.52023e-06
1.7516e-06
9.98145e-06
1.95436e-06
1.34203e-05
1.80328e-06
1.82061e-05
9.72939e-07
2.46396e-05
-1.08293e-06
3.25588e-05
-4.79189e-06
4.11005e-05
4.91951e-05
-1.01728e-05
2.47613e-07
3.06043e-06
6.29084e-07
4.05028e-06
1.0888e-06
5.26785e-06
1.65071e-06
6.95832e-06
2.26006e-06
9.3721e-06
2.85402e-06
1.28264e-05
3.3048e-06
1.77553e-05
3.35883e-06
2.45856e-05
2.54355e-06
3.33741e-05
2.95786e-07
4.33483e-05
5.30956e-05
-3.60476e-06
2.42332e-07
2.8181e-06
6.64638e-07
3.62797e-06
1.17635e-06
4.75615e-06
1.81047e-06
6.3242e-06
2.56619e-06
8.61637e-06
3.41814e-06
1.19744e-05
4.30005e-06
1.68734e-05
5.0393e-06
2.38464e-05
5.25607e-06
3.31574e-05
4.37665e-06
4.42277e-05
5.57152e-05
1.75707e-06
2.54561e-07
2.56354e-06
6.99919e-07
3.18262e-06
1.2301e-06
4.22596e-06
1.8951e-06
5.6592e-06
2.71581e-06
7.79566e-06
3.70306e-06
1.09872e-05
4.84244e-06
1.57341e-05
6.04838e-06
2.26404e-05
7.06856e-06
3.21372e-05
7.40127e-06
4.3895e-05
5.67331e-05
6.38344e-06
2.42485e-07
2.32105e-06
6.86015e-07
2.73909e-06
1.20376e-06
3.70822e-06
1.84695e-06
5.01601e-06
2.64891e-06
6.9937e-06
3.64441e-06
9.99168e-06
4.8703e-06
1.45082e-05
6.33654e-06
2.11742e-05
7.92714e-06
3.05466e-05
9.3186e-06
4.25036e-05
5.62589e-05
9.79275e-06
2.35436e-07
2.08562e-06
6.54055e-07
2.32047e-06
1.12965e-06
3.23262e-06
1.70363e-06
4.44203e-06
2.41237e-06
6.28496e-06
3.30641e-06
9.09764e-06
4.46699e-06
1.33476e-05
5.99251e-06
1.96487e-05
7.92163e-06
2.86174e-05
1.01128e-05
4.03124e-05
5.41559e-05
1.22159e-05
2.27162e-07
1.85845e-06
5.951e-07
1.95253e-06
9.93666e-07
2.83405e-06
1.4538e-06
3.9819e-06
2.01044e-06
5.72832e-06
2.7243e-06
8.38377e-06
3.7033e-06
1.23686e-05
5.11094e-06
1.8241e-05
7.08775e-06
2.66406e-05
9.53752e-06
3.78626e-05
5.17891e-05
1.19043e-05
2.01924e-07
1.65653e-06
4.82939e-07
1.67151e-06
7.73895e-07
2.5431e-06
1.09545e-06
3.66034e-06
1.47635e-06
5.34743e-06
1.97522e-06
7.8849e-06
2.70742e-06
1.16364e-05
3.86732e-06
1.70811e-05
5.71116e-06
2.47968e-05
8.4335e-06
3.51403e-05
4.83928e-05
1.18298e-05
1.55629e-07
1.5009e-06
3.33815e-07
1.49333e-06
5.19713e-07
2.3572e-06
7.15489e-07
3.46457e-06
9.31764e-07
5.13115e-06
1.21425e-06
7.60242e-06
1.67526e-06
1.11754e-05
2.51712e-06
1.62393e-05
4.00605e-06
2.33079e-05
6.30791e-06
3.28384e-05
4.54012e-05
9.29944e-06
1.14468e-07
1.38643e-06
2.18943e-07
1.38885e-06
3.32533e-07
2.24361e-06
4.29981e-07
3.36712e-06
5.02579e-07
5.05855e-06
5.91616e-07
7.51338e-06
8.11189e-07
1.09558e-05
1.35088e-06
1.56996e-05
2.44304e-06
2.22157e-05
4.37926e-06
3.09022e-05
4.25261e-05
7.25442e-06
1.18054e-07
1.26838e-06
1.86508e-07
1.3204e-06
2.55637e-07
2.17448e-06
2.77109e-07
3.34565e-06
2.42405e-07
5.09326e-06
2.12856e-07
7.54293e-06
3.08135e-07
1.08605e-05
6.98777e-07
1.53089e-05
1.62624e-06
2.12882e-05
3.33607e-06
2.91924e-05
3.93842e-05
6.47791e-06
1.24421e-07
1.14396e-06
1.7519e-07
1.26963e-06
2.11026e-07
2.13864e-06
1.83471e-07
3.3732e-06
1.30412e-07
5.14632e-06
1.44196e-07
7.52915e-06
3.5171e-07
1.0653e-05
8.88609e-07
1.4772e-05
1.92079e-06
2.02561e-05
3.5562e-06
2.7557e-05
3.71562e-05
5.7842e-06
1.6321e-07
9.80748e-07
1.69009e-07
1.26383e-06
1.06325e-07
2.20133e-06
5.33426e-08
3.42618e-06
1.20455e-07
5.07921e-06
4.21341e-07
7.22826e-06
1.04323e-06
1.00311e-05
2.11179e-06
1.37035e-05
3.80408e-06
1.85638e-05
6.39354e-06
2.49675e-05
3.32027e-05
1.03471e-05
-7.08297e-07
-9.73605e-07
-9.79545e-07
-7.62909e-07
-2.44421e-07
6.68505e-07
2.07307e-06
4.12315e-06
7.07442e-06
1.13536e-05
1.77019e-05
-9.55692e-06
-9.87366e-06
1.94306e-05
-1.5317e-05
-1.14975e-05
1.72576e-05
-2.0152e-05
-1.37482e-05
1.85832e-05
-2.49049e-05
-1.60077e-05
2.07605e-05
-2.94147e-05
-1.80803e-05
2.25902e-05
-3.39534e-05
-1.99437e-05
2.44823e-05
-3.88367e-05
-2.15943e-05
2.64777e-05
-4.43404e-05
-2.29901e-05
2.84937e-05
-5.07334e-05
-2.40325e-05
3.04255e-05
-5.82838e-05
-2.45258e-05
3.20761e-05
-2.4108e-05
3.32033e-05
-6.73791e-05
-7.53515e-06
-2.33851e-06
-1.37633e-05
-5.26931e-06
-1.94261e-05
-8.08545e-06
-2.46718e-05
-1.0762e-05
-2.96244e-05
-1.31277e-05
-3.45459e-05
-1.50222e-05
-3.97609e-05
-1.63793e-05
-4.56181e-05
-1.71328e-05
-5.24702e-05
-1.71803e-05
-6.06784e-05
-1.63176e-05
-1.42044e-05
-7.0582e-05
-3.75322e-06
1.41471e-06
-8.37334e-06
-6.49191e-07
-1.35324e-05
-2.92638e-06
-1.89357e-05
-5.35868e-06
-2.45381e-05
-7.52536e-06
-3.03246e-05
-9.23567e-06
-3.64495e-05
-1.02544e-05
-4.31846e-05
-1.03978e-05
-5.0872e-05
-9.49294e-06
-5.98744e-05
-7.3152e-06
-3.5078e-06
-7.05709e-05
-1.8116e-06
3.2263e-06
-4.83166e-06
2.37087e-06
-9.01062e-06
1.25258e-06
-1.40233e-05
-3.45946e-07
-1.95776e-05
-1.97111e-06
-2.56169e-05
-3.19635e-06
-3.21863e-05
-3.685e-06
-3.94208e-05
-3.1633e-06
-4.75401e-05
-1.37363e-06
-5.68849e-05
2.0296e-06
7.54823e-06
-6.79409e-05
-1.09672e-06
4.32302e-06
-2.91898e-06
4.19313e-06
-5.81074e-06
4.14434e-06
-9.81516e-06
3.65848e-06
-1.48025e-05
3.01622e-06
-2.06338e-05
2.635e-06
-2.72308e-05
2.91196e-06
-3.46439e-05
4.24975e-06
-4.3067e-05
7.04947e-06
-5.27541e-05
1.17167e-05
1.88289e-05
-6.40347e-05
-1.06339e-06
5.38641e-06
-2.67955e-06
5.80929e-06
-4.889e-06
6.35379e-06
-7.95793e-06
6.72741e-06
-1.2069e-05
7.12725e-06
-1.72264e-05
7.79244e-06
-2.33952e-05
9.08078e-06
-3.0561e-05
1.14155e-05
-3.87835e-05
1.5272e-05
-4.82419e-05
2.11752e-05
2.98367e-05
-5.92497e-05
-9.71641e-07
6.35805e-06
-2.41388e-06
7.25153e-06
-4.35476e-06
8.29466e-06
-6.98035e-06
9.35301e-06
-1.047e-05
1.06169e-05
-1.49415e-05
1.22639e-05
-2.04533e-05
1.45926e-05
-2.70417e-05
1.80039e-05
-3.47694e-05
2.29997e-05
-4.37545e-05
3.01603e-05
4.02166e-05
-5.41344e-05
-9.39139e-07
7.29719e-06
-2.26407e-06
8.57646e-06
-4.01113e-06
1.00417e-05
-6.33353e-06
1.16754e-05
-9.3774e-06
1.36607e-05
-1.32886e-05
1.61751e-05
-1.81793e-05
1.94833e-05
-2.41402e-05
2.39648e-05
-3.12595e-05
3.0119e-05
-3.96752e-05
3.85761e-05
5.01525e-05
-4.96111e-05
-8.88696e-07
8.18589e-06
-2.12164e-06
9.80941e-06
-3.71592e-06
1.1636e-05
-5.7987e-06
1.37582e-05
-8.50339e-06
1.63654e-05
-1.19663e-05
1.9638e-05
-1.63193e-05
2.38363e-05
-2.16861e-05
2.93316e-05
-2.81865e-05
3.66194e-05
-3.59762e-05
4.63658e-05
5.94533e-05
-4.52771e-05
-7.52099e-07
8.93799e-06
-1.84735e-06
1.09047e-05
-3.28306e-06
1.30717e-05
-5.15606e-06
1.56312e-05
-7.57541e-06
1.87848e-05
-1.06727e-05
2.27353e-05
-1.45761e-05
2.77397e-05
-1.94234e-05
3.41789e-05
-2.5356e-05
4.2552e-05
-3.25332e-05
5.3543e-05
6.80247e-05
-4.11046e-05
-6.27518e-07
9.5655e-06
-1.59463e-06
1.18718e-05
-2.87182e-06
1.43489e-05
-4.54054e-06
1.72999e-05
-6.70365e-06
2.09479e-05
-9.47102e-06
2.55027e-05
-1.29719e-05
3.12405e-05
-1.7337e-05
3.8544e-05
-2.27168e-05
4.79317e-05
-2.92706e-05
6.00968e-05
7.59486e-05
-3.71945e-05
-6.10925e-07
1.01764e-05
-1.49286e-06
1.27537e-05
-2.63024e-06
1.54863e-05
-4.11128e-06
1.8781e-05
-6.02387e-06
2.28605e-05
-8.47266e-06
2.79515e-05
-1.15796e-05
3.43475e-05
-1.54699e-05
4.24343e-05
-2.02886e-05
5.27505e-05
-2.61991e-05
6.60072e-05
8.31432e-05
-3.33936e-05
-5.37695e-07
1.07141e-05
-1.30643e-06
1.35224e-05
-2.30075e-06
1.64806e-05
-3.59322e-06
2.00734e-05
-5.26367e-06
2.45309e-05
-7.40736e-06
3.00952e-05
-1.01344e-05
3.70745e-05
-1.35686e-05
4.58685e-05
-1.78476e-05
5.70295e-05
-2.31451e-05
7.13047e-05
8.96726e-05
-2.96745e-05
-3.588e-07
1.10729e-05
-9.53037e-07
1.41167e-05
-1.76558e-06
1.72931e-05
-2.85109e-06
2.11589e-05
-4.27151e-06
2.59514e-05
-6.1116e-06
3.19353e-05
-8.46815e-06
3.94311e-05
-1.14508e-05
4.88512e-05
-1.51839e-05
6.07626e-05
-1.98093e-05
7.593e-05
9.53541e-05
-2.54908e-05
-3.00388e-07
1.13733e-05
-7.64277e-07
1.45806e-05
-1.40108e-06
1.79299e-05
-2.25986e-06
2.20177e-05
-3.39835e-06
2.70898e-05
-4.89463e-06
3.34315e-05
-6.82956e-06
4.1366e-05
-9.29876e-06
5.13204e-05
-1.24009e-05
6.38647e-05
-1.62627e-05
7.97919e-05
0.000100135
-2.1044e-05
-1.99677e-07
1.1573e-05
-5.01944e-07
1.48828e-05
-9.32646e-07
1.83606e-05
-1.53341e-06
2.26185e-05
-2.36317e-06
2.79196e-05
-3.47709e-06
3.45455e-05
-4.94814e-06
4.2837e-05
-6.84562e-06
5.32179e-05
-9.23372e-06
6.62528e-05
-1.22101e-05
8.27683e-05
0.000103827
-1.59015e-05
1.24688e-08
1.15605e-05
-4.68789e-08
1.49422e-05
-2.1309e-07
1.85269e-05
-5.17628e-07
2.2923e-05
-9.88704e-07
2.83907e-05
-1.68259e-06
3.52393e-05
-2.63456e-06
4.3789e-05
-3.88304e-06
5.44663e-05
-5.46229e-06
6.78321e-05
-7.41278e-06
8.47188e-05
0.000106185
-9.77059e-06
1.68388e-07
1.13921e-05
3.60734e-07
1.47498e-05
4.8676e-07
1.84008e-05
5.39947e-07
2.28698e-05
4.88198e-07
2.84424e-05
3.03293e-07
3.54243e-05
-2.38634e-08
4.41162e-05
-4.8403e-07
5.49265e-05
-1.05813e-06
6.84062e-05
-1.7374e-06
8.5398e-05
0.000107006
-2.55887e-06
3.66338e-07
1.10258e-05
8.48698e-07
1.42675e-05
1.31493e-06
1.79346e-05
1.76738e-06
2.24174e-05
2.1947e-06
2.80151e-05
2.60659e-06
3.50124e-05
3.04104e-06
4.36817e-05
3.5605e-06
5.4407e-05
4.2383e-06
6.77284e-05
5.13023e-06
8.45061e-05
0.00010589
6.2461e-06
6.0354e-07
1.04223e-05
1.42395e-06
1.34471e-05
2.27964e-06
1.70789e-05
3.19218e-06
2.15048e-05
4.17883e-06
2.70285e-05
5.30558e-06
3.38856e-05
6.67118e-06
4.23161e-05
8.4049e-06
5.26733e-05
1.06343e-05
6.5499e-05
1.34937e-05
8.16467e-05
0.000102263
1.71206e-05
8.65845e-07
9.55641e-06
2.04525e-06
1.22677e-05
3.32063e-06
1.58035e-05
4.73675e-06
2.00887e-05
6.37196e-06
2.53933e-05
8.36381e-06
3.18937e-05
1.08882e-05
3.97918e-05
1.41308e-05
4.94307e-05
1.82631e-05
6.13667e-05
2.34897e-05
7.64201e-05
9.57011e-05
3.00519e-05
1.02079e-06
8.53562e-06
2.53533e-06
1.07531e-05
4.22584e-06
1.4113e-05
6.18122e-06
1.81333e-05
8.58224e-06
2.29922e-05
1.16469e-05
2.88291e-05
1.55981e-05
3.58407e-05
2.06413e-05
4.43874e-05
2.69997e-05
5.50083e-05
3.49585e-05
6.84613e-05
8.58083e-05
4.48513e-05
1.01166e-06
7.52396e-06
2.8897e-06
8.87507e-06
4.75093e-06
1.22518e-05
7.24787e-06
1.56364e-05
1.0567e-05
1.96732e-05
1.4924e-05
2.4472e-05
2.05123e-05
3.02523e-05
2.75517e-05
3.7348e-05
3.63376e-05
4.62225e-05
4.72653e-05
5.75335e-05
7.22399e-05
6.08338e-05
-2.79165e-06
1.03156e-05
-1.05605e-06
7.13948e-06
2.19944e-06
8.99631e-06
6.24206e-06
1.15937e-05
1.12445e-05
1.46707e-05
1.74128e-05
1.83038e-05
2.48977e-05
2.27674e-05
3.40217e-05
2.8224e-05
4.52266e-05
3.50176e-05
5.90609e-05
4.36993e-05
5.50758e-05
7.6225e-05
5.26011e-06
1.41705e-05
7.61743e-06
1.49003e-05
5.81376e-06
2.03869e-05
1.27038e-06
2.53039e-05
-4.95756e-06
2.88181e-05
-1.21509e-05
3.16756e-05
-1.9768e-05
3.40948e-05
-2.78679e-05
3.65936e-05
-3.67913e-05
3.93489e-05
-4.67221e-05
4.20069e-05
4.43528e-05
-5.78717e-05
7.73428e-06
6.4362e-06
1.19476e-05
1.06869e-05
1.38529e-05
1.84816e-05
1.34245e-05
2.57323e-05
9.99596e-06
3.22467e-05
3.74133e-06
3.79302e-05
-4.44182e-06
4.2278e-05
-1.35907e-05
4.57424e-05
-2.35637e-05
4.9322e-05
-3.46961e-05
5.31393e-05
5.69024e-05
-4.72457e-05
6.29253e-06
1.43663e-07
9.73147e-06
7.248e-06
1.30396e-05
1.51735e-05
1.49411e-05
2.38307e-05
1.43486e-05
3.28393e-05
1.08498e-05
4.1429e-05
4.56523e-06
4.85626e-05
-3.66473e-06
5.39724e-05
-1.29791e-05
5.86363e-05
-2.33809e-05
6.35412e-05
6.85196e-05
-3.49981e-05
3.84374e-06
-3.70007e-06
8.08461e-06
3.00713e-06
1.18735e-05
1.13846e-05
1.46312e-05
2.1073e-05
1.57013e-05
3.17692e-05
1.44561e-05
4.26742e-05
1.05063e-05
5.25124e-05
4.11402e-06
6.03646e-05
-3.85889e-06
6.66092e-05
-1.28652e-05
7.25475e-05
7.8648e-05
-2.29936e-05
1.62313e-06
-5.3232e-06
5.76619e-06
-1.13594e-06
1.01507e-05
7.00013e-06
1.37607e-05
1.7463e-05
1.60356e-05
2.94943e-05
1.64458e-05
4.2264e-05
1.44973e-05
5.44609e-05
1.01138e-05
6.47481e-05
3.83022e-06
7.28928e-05
-3.59672e-06
7.99744e-05
8.69123e-05
-1.1861e-05
7.84789e-07
-6.10799e-06
3.66659e-06
-4.01774e-06
8.24156e-06
2.42516e-06
1.25721e-05
1.31324e-05
1.58724e-05
2.6194e-05
1.75978e-05
4.05386e-05
1.72751e-05
5.47836e-05
1.46801e-05
6.7343e-05
1.01197e-05
7.74533e-05
4.25126e-06
8.58428e-05
9.34078e-05
-2.24424e-06
8.38605e-07
-6.9466e-06
2.50351e-06
-5.68264e-06
6.4771e-06
-1.54843e-06
1.1161e-05
8.44858e-06
1.52488e-05
2.21062e-05
1.80471e-05
3.77402e-05
1.90676e-05
5.37632e-05
1.80256e-05
6.8385e-05
1.50688e-05
8.04101e-05
1.07142e-05
9.01974e-05
9.87557e-05
5.36632e-06
8.87373e-07
-7.83397e-06
2.22346e-06
-7.01873e-06
5.0785e-06
-4.40347e-06
9.58278e-06
3.9443e-06
1.41448e-05
1.75441e-05
1.77525e-05
3.41326e-05
1.98681e-05
5.16476e-05
2.0193e-05
6.80601e-05
1.8767e-05
8.18361e-05
1.60734e-05
9.2891e-05
0.000101968
1.2861e-05
9.00307e-07
-8.73428e-06
2.16933e-06
-8.28775e-06
4.1762e-06
-6.41035e-06
8.13153e-06
-1.10233e-08
1.27905e-05
1.28852e-05
1.69463e-05
2.99768e-05
1.99246e-05
4.86693e-05
2.1406e-05
6.65787e-05
2.13851e-05
8.1857e-05
2.01592e-05
9.41169e-05
0.000103945
1.8182e-05
8.49607e-07
-9.58389e-06
2.01093e-06
-9.44907e-06
3.65741e-06
-8.05682e-06
6.80879e-06
-3.1624e-06
1.12519e-05
8.44203e-06
1.57092e-05
2.55195e-05
1.93313e-05
4.50472e-05
2.17937e-05
6.41162e-05
2.30687e-05
8.0582e-05
2.34301e-05
9.37555e-05
0.000104104
2.32709e-05
6.5733e-07
-1.02412e-05
1.74964e-06
-1.05414e-05
3.23289e-06
-9.54007e-06
5.66349e-06
-5.593e-06
9.64809e-06
4.45744e-06
1.41566e-05
2.1011e-05
1.82254e-05
4.09784e-05
2.14976e-05
6.0844e-05
2.39693e-05
7.81103e-05
2.58673e-05
9.18575e-05
0.000102389
2.7583e-05
5.72079e-07
-1.08133e-05
1.46582e-06
-1.14351e-05
2.64147e-06
-1.07157e-05
4.55524e-06
-7.50677e-06
7.90184e-06
1.11083e-06
1.21576e-05
1.67552e-05
1.64389e-05
3.66972e-05
2.03893e-05
5.68936e-05
2.40033e-05
7.44962e-05
2.74514e-05
8.84094e-05
9.86425e-05
3.11976e-05
3.67268e-07
-1.11806e-05
9.47233e-07
-1.20151e-05
1.83595e-06
-1.16044e-05
3.28435e-06
-8.95517e-06
6.017e-06
-1.62182e-06
9.85142e-06
1.29208e-05
1.4171e-05
3.23776e-05
1.86779e-05
5.23867e-05
2.33727e-05
6.98015e-05
2.82773e-05
8.35048e-05
9.34335e-05
3.34863e-05
9.30418e-08
-1.12736e-05
3.36765e-07
-1.22588e-05
8.22262e-07
-1.20899e-05
1.8086e-06
-9.94151e-06
3.88335e-06
-3.69657e-06
7.30906e-06
9.49507e-06
1.15661e-05
2.81206e-05
1.65472e-05
4.74055e-05
2.22895e-05
6.40592e-05
2.87811e-05
7.70132e-05
8.62477e-05
3.5967e-05
-1.40146e-07
-1.11335e-05
-2.65815e-07
-1.21331e-05
-2.72138e-07
-1.20836e-05
8.11192e-08
-1.02948e-05
1.44279e-06
-5.05824e-06
4.42637e-06
6.51149e-06
8.63524e-06
2.39118e-05
1.40465e-05
4.19943e-05
2.07966e-05
5.73091e-05
2.88959e-05
6.89138e-05
7.70761e-05
3.80675e-05
-3.99503e-07
-1.0734e-05
-9.30734e-07
-1.16019e-05
-1.44981e-06
-1.15645e-05
-1.78732e-06
-9.95725e-06
-1.32151e-06
-5.52405e-06
1.16818e-06
4.0218e-06
5.35855e-06
1.97214e-05
1.12487e-05
3.61041e-05
1.91431e-05
4.94147e-05
2.87994e-05
5.92576e-05
6.55316e-05
4.03438e-05
-7.24767e-07
-1.00092e-05
-1.69824e-06
-1.06284e-05
-2.74395e-06
-1.05188e-05
-3.69843e-06
-9.00278e-06
-4.06789e-06
-5.15458e-06
-2.43926e-06
2.39317e-06
2.01882e-06
1.52633e-05
8.41951e-06
2.97034e-05
1.72515e-05
4.05828e-05
2.84243e-05
4.80847e-05
5.21895e-05
4.17664e-05
-1.091e-06
-8.91818e-06
-2.54374e-06
-9.1757e-06
-4.16245e-06
-8.90011e-06
-5.75147e-06
-7.41377e-06
-6.74553e-06
-4.16052e-06
-5.98627e-06
1.63391e-06
-1.69656e-06
1.09736e-05
5.41676e-06
2.25901e-05
1.51687e-05
3.08309e-05
2.72764e-05
3.5977e-05
3.82808e-05
4.11851e-05
-1.48968e-06
-7.4285e-06
-3.46684e-06
-7.19855e-06
-5.74339e-06
-6.62355e-06
-8.03157e-06
-5.1256e-06
-9.6544e-06
-2.53769e-06
-9.43648e-06
1.41599e-06
-5.68221e-06
7.21932e-06
2.0515e-06
1.48564e-05
1.25894e-05
2.02929e-05
2.57405e-05
2.28259e-05
2.27243e-05
4.1297e-05
-1.97249e-06
-5.45601e-06
-4.5662e-06
-4.60484e-06
-7.60035e-06
-3.58941e-06
-1.06318e-05
-2.09414e-06
-1.28211e-05
-3.48384e-07
-1.30119e-05
1.60674e-06
-9.79708e-06
4.00455e-06
-2.05176e-06
7.11106e-06
9.13443e-06
9.10674e-06
2.24531e-05
9.50728e-06
7.31578e-06
3.78616e-05
-3.04947e-06
-2.40655e-06
-6.69635e-06
-9.57951e-07
-1.05101e-05
2.24295e-07
-1.38407e-05
1.23649e-06
-1.59307e-05
1.74167e-06
-1.59393e-05
1.61528e-06
-1.26662e-05
7.31509e-07
-4.81062e-06
-7.44568e-07
7.04859e-06
-2.75247e-06
2.1297e-05
-4.74114e-06
-9.49864e-06
3.81114e-05
-4.49414e-06
2.08759e-06
-6.88379e-06
1.4317e-06
-8.55093e-06
1.89144e-06
-8.53101e-06
1.21656e-06
-6.04313e-06
-7.4621e-07
-2.99812e-07
-4.12803e-06
8.39258e-06
-7.96088e-06
1.88851e-05
-1.12371e-05
3.10367e-05
-1.4904e-05
4.58007e-05
-1.95052e-05
-2.58663e-05
6.21684e-05
3.91952e-07
1.69564e-06
2.54857e-06
-7.24914e-07
6.85056e-06
-2.41055e-06
1.32635e-05
-5.19637e-06
2.10007e-05
-8.48338e-06
2.90058e-05
-1.21332e-05
3.72671e-05
-1.62222e-05
4.6766e-05
-2.0736e-05
5.80173e-05
-2.61554e-05
7.15623e-05
-3.30502e-05
-4.21747e-05
8.78707e-05
1.20112e-05
1.84258e-05
2.50116e-05
3.1409e-05
3.75963e-05
4.37669e-05
5.0312e-05
5.78001e-05
6.66623e-05
7.73114e-05
9.02125e-05
-7.19737e-06
1.95941e-05
-1.23967e-05
-1.31989e-05
1.79021e-05
-1.19005e-05
-2.12557e-05
2.09135e-05
-1.28567e-05
-2.92757e-05
2.22254e-05
-1.42054e-05
-3.74307e-05
2.4392e-05
-1.6237e-05
-4.5938e-05
2.74704e-05
-1.89631e-05
-5.52262e-05
3.17887e-05
-2.25005e-05
-6.57522e-05
3.75953e-05
-2.70692e-05
-7.79813e-05
4.52241e-05
-3.2995e-05
-9.24807e-05
5.52231e-05
-4.07238e-05
6.84072e-05
-5.08395e-05
-0.000110048
1.50466e-06
1.80894e-05
1.07376e-06
1.8333e-05
-3.67103e-06
2.56582e-05
-9.94675e-06
2.85011e-05
-1.78462e-05
3.22915e-05
-2.67543e-05
3.63785e-05
-3.67493e-05
4.17837e-05
-4.80746e-05
4.89205e-05
-6.12872e-05
5.84367e-05
-7.68895e-05
7.08254e-05
8.70707e-05
-9.55529e-05
2.00302e-06
1.60864e-05
1.99064e-06
1.83454e-05
2.4613e-07
2.74027e-05
-2.98438e-06
3.17316e-05
-8.58624e-06
3.78933e-05
-1.58386e-05
4.36308e-05
-2.46509e-05
5.0596e-05
-3.50402e-05
5.93098e-05
-4.71291e-05
7.05257e-05
-6.1543e-05
8.52393e-05
0.0001044
-7.88719e-05
1.46597e-06
1.46205e-05
1.06623e-06
1.87451e-05
5.45715e-07
2.79233e-05
-1.13711e-06
3.34145e-05
-4.62658e-06
4.13828e-05
-9.62413e-06
4.86284e-05
-1.63546e-05
5.73265e-05
-2.47122e-05
6.76674e-05
-3.48782e-05
8.06917e-05
-4.69854e-05
9.73465e-05
0.00011894
-6.15262e-05
1.1891e-06
1.34314e-05
7.69406e-07
1.91648e-05
5.88986e-07
2.81037e-05
-5.2761e-07
3.45311e-05
-2.60091e-06
4.34561e-05
-5.80342e-06
5.18309e-05
-1.04911e-05
6.20142e-05
-1.66691e-05
7.38453e-05
-2.44428e-05
8.84654e-05
-3.39932e-05
0.000106897
0.000130528
-4.55809e-05
1.18043e-06
1.22509e-05
1.14381e-06
1.92014e-05
1.28535e-06
2.79622e-05
5.20819e-07
3.52956e-05
-7.02656e-07
4.46796e-05
-2.76027e-06
5.38885e-05
-5.87273e-06
6.51267e-05
-1.01593e-05
7.81319e-05
-1.5783e-05
9.40891e-05
-2.28595e-05
0.000113973
0.000139194
-3.15251e-05
1.20534e-06
1.10456e-05
1.60509e-06
1.88017e-05
2.07823e-06
2.7489e-05
1.72141e-06
3.56524e-05
1.10362e-06
4.52974e-05
-1.55271e-07
5.51474e-05
-2.09952e-06
6.70709e-05
-4.89454e-06
8.09269e-05
-8.69781e-06
9.78924e-05
-1.36352e-05
0.000118911
0.000145446
-1.98875e-05
1.14034e-06
9.90524e-06
1.83383e-06
1.81082e-05
2.57204e-06
2.67508e-05
2.63605e-06
3.55884e-05
2.5408e-06
4.53926e-05
1.92447e-06
5.57637e-05
9.07827e-07
6.80876e-05
-6.83048e-07
8.25177e-05
-2.94106e-06
0.00010015
-5.9635e-06
0.000121933
0.000149308
-9.82528e-06
1.09639e-06
8.80885e-06
2.08936e-06
1.71152e-05
3.08233e-06
2.57578e-05
3.56262e-06
3.51081e-05
3.90804e-06
4.50472e-05
3.8551e-06
5.58166e-05
3.58115e-06
6.83615e-05
2.95325e-06
8.31456e-05
1.95213e-06
0.000101152
5.06586e-07
0.000123379
0.000151233
-1.41862e-06
1.25954e-06
7.54931e-06
2.59289e-06
1.57819e-05
3.89519e-06
2.44555e-05
4.80929e-06
3.4194e-05
5.55793e-06
4.42986e-05
5.99885e-06
5.53757e-05
6.31854e-06
6.80418e-05
6.45683e-06
8.30074e-05
6.43732e-06
0.000101171
6.24351e-06
0.000123573
0.00015166
5.81679e-06
1.34585e-06
6.20346e-06
2.93085e-06
1.41969e-05
4.5278e-06
2.28586e-05
5.87958e-06
3.28423e-05
7.04227e-06
4.31359e-05
7.96487e-06
5.44531e-05
8.82652e-06
6.71802e-05
9.64607e-06
8.21878e-05
1.05011e-05
0.000100316
1.143e-05
0.000122644
0.000150555
1.2535e-05
1.24755e-06
4.95591e-06
2.92832e-06
1.25161e-05
4.74579e-06
2.10411e-05
6.47426e-06
3.11138e-05
8.04607e-06
4.15641e-05
9.47025e-06
5.30289e-05
1.08952e-05
6.57552e-05
1.23971e-05
8.06859e-05
1.40952e-05
9.86179e-05
1.60853e-05
0.000120654
0.000148214
1.84265e-05
1.19281e-06
3.7631e-06