/*--------------------------------*- C++ -*----------------------------------*\
| =========                 |                                                 |
| \\      /  F ield         | OpenFOAM: The Open Source CFD Toolbox           |
|  \\    /   O peration     | Version:  3.0.1                                 |
|   \\  /    A nd           | Web:      www.OpenFOAM.org                      |
|    \\/     M anipulation  |                                                 |
\*---------------------------------------------------------------------------*/
FoamFile
{
    version     2.0;
    format      ascii;
    class       volVectorField;
    location    "0.311135";
    object      U;
}
// * * * * * * * * * * * * * * * * * * * * * * * * * * * * * * * * * * * * * //

dimensions      [0 1 -1 0 0 0 0];

internalField   nonuniform List<vector> 
21246
(
(5.34136 -1.07289 -1.95739e-20)
(4.01865 -0.717212 -3.77051e-19)
(4.1061 -0.575188 5.26662e-19)
(3.91538 -0.513796 -4.06908e-19)
(3.64364 -0.462892 7.47426e-21)
(3.36512 -0.422809 -1.13681e-19)
(3.11603 -0.398818 9.77636e-21)
(2.90405 -0.392287 5.66634e-20)
(2.72001 -0.400686 -4.26874e-20)
(2.55718 -0.419888 -6.89169e-20)
(2.41834 -0.43828 1.46457e-20)
(3.72542 -0.639755 -3.99548e-18)
(2.56682 -0.606122 8.56947e-19)
(3.12175 -0.860796 1.26175e-18)
(3.32827 -0.928678 0)
(3.32943 -0.897531 4.28134e-20)
(3.23665 -0.814764 1.8464e-19)
(3.07775 -0.710197 -4.5568e-20)
(2.9104 -0.633224 1.99926e-19)
(2.75072 -0.590156 -9.69391e-20)
(2.60537 -0.574944 6.11672e-20)
(2.48153 -0.574727 -7.30074e-20)
(2.75521 0.789019 -2.22346e-19)
(2.09764 0.183564 9.20421e-19)
(2.4445 -0.46154 -1.76605e-18)
(2.68398 -0.797586 -2.80703e-20)
(2.83459 -0.964003 7.12446e-19)
(2.91454 -1.00078 0)
(2.90593 -0.938494 1.68885e-19)
(2.83377 -0.840206 -2.9218e-19)
(2.72721 -0.756087 2.46717e-19)
(2.61907 -0.712213 0)
(2.52623 -0.69957 7.19879e-20)
(2.64128 2.0885 -2.88351e-18)
(2.23829 1.06816 -1.87967e-19)
(2.2484 0.245852 3.503e-18)
(2.3308 -0.315076 3.28973e-19)
(2.45123 -0.704541 0)
(2.57714 -0.925983 7.69295e-19)
(2.65799 -0.9893 -5.81231e-19)
(2.67972 -0.94868 8.09019e-20)
(2.65117 -0.871838 1.13581e-20)
(2.59631 -0.813198 -1.16164e-19)
(2.54663 -0.791888 0)
(3.07929 2.89323 8.29937e-20)
(2.59782 1.82396 -3.63528e-18)
(2.35572 0.957308 2.6367e-18)
(2.26787 0.259434 -2.02271e-18)
(2.27928 -0.288441 1.39107e-18)
(2.35108 -0.670289 0)
(2.43788 -0.875871 0)
(2.50592 -0.934894 -7.84482e-20)
(2.53922 -0.907549 0)
(2.54068 -0.860931 6.71769e-20)
(2.53786 -0.838749 0)
(3.68364 3.31008 8.44317e-18)
(3.00103 2.43912 -3.28653e-20)
(2.61212 1.56131 -4.36359e-18)
(2.37403 0.796442 2.01849e-18)
(2.26182 0.158481 2.95053e-19)
(2.24565 -0.33308 5.91486e-19)
(2.28891 -0.656447 7.25706e-19)
(2.35662 -0.818782 -6.06718e-19)
(2.42135 -0.861164 0)
(2.46728 -0.846917 -4.71042e-19)
(2.50508 -0.834661 1.15402e-20)
(3.90221 3.41831 3.58522e-18)
(3.31534 2.87444 -2.90179e-18)
(2.8953 2.04929 -2.70541e-19)
(2.55004 1.27863 1.3204e-18)
(2.32977 0.593466 -2.52657e-18)
(2.22207 0.0308864 1.02658e-18)
(2.20341 -0.379955 4.86814e-19)
(2.24436 -0.630963 -9.53036e-19)
(2.31475 -0.744752 4.31994e-19)
(2.38926 -0.773562 -1.78967e-19)
(2.46106 -0.779635 3.63249e-19)
(4.02493 3.42956 -2.17761e-19)
(3.58843 3.15771 2.63914e-18)
(3.17904 2.44731 -1.99559e-18)
(2.75631 1.71495 0)
(2.44514 1.01022 5.10568e-19)
(2.25176 0.402087 -1.15237e-18)
(2.16538 -0.0709342 -2.53641e-19)
(2.16581 -0.391789 -6.62632e-19)
(2.22555 -0.570457 4.96727e-19)
(2.31541 -0.646176 0)
(2.41536 -0.676621 -5.50914e-19)
(4.12339 3.36601 4.12116e-18)
(3.77929 3.26344 -5.04395e-18)
(3.4285 2.73687 1.90199e-18)
(2.96965 2.09523 -1.36204e-18)
(2.58758 1.40164 1.54444e-18)
(2.31704 0.773717 7.2366e-19)
(2.16434 0.261444 5.10349e-19)
(2.11889 -0.111937 0)
(2.1581 -0.346294 0)
(2.25214 -0.468505 0)
(2.37469 -0.52909 2.59593e-20)
(4.18596 3.26662 -3.49853e-18)
(3.88597 3.28213 2.42509e-18)
(3.61964 2.92729 0)
(3.17227 2.40175 3.27079e-19)
(2.74475 1.75641 0)
(2.40978 1.13882 -3.52878e-19)
(2.19683 0.609824 0)
(2.10565 0.200881 6.17218e-19)
(2.11949 -0.0790345 -4.63378e-19)
(2.20967 -0.245951 0)
(2.34678 -0.342087 0)
(4.20773 3.15933 -1.80365e-18)
(3.94374 3.24844 2.29951e-18)
(3.74792 3.00877 0)
(3.34335 2.62108 -3.22879e-19)
(2.90374 2.06179 0)
(2.52559 1.48385 0)
(2.26421 0.961033 -8.83744e-19)
(2.13217 0.534478 1.27438e-18)
(2.11989 0.220485 7.54716e-19)
(2.20121 0.012609 -7.02673e-20)
(2.34783 -0.124816 0)
(4.1976 3.04658 -2.41868e-18)
(3.95531 3.18012 4.28011e-18)
(3.80136 2.99995 -2.05381e-18)
(3.48002 2.76423 0)
(3.05407 2.30581 0)
(2.66 1.78729 0)
(2.36737 1.2942 -8.35004e-19)
(2.20463 0.86929 2.49556e-20)
(2.16961 0.534667 -3.65282e-19)
(2.23895 0.292666 -4.90196e-19)
(2.38508 0.114973 0)
(4.16932 2.92658 0)
(3.9432 3.09521 0)
(3.81796 2.94508 1.91065e-18)
(3.55934 2.80475 -5.54525e-20)
(3.20128 2.48495 -1.68e-18)
(2.80708 2.03382 1.7709e-18)
(2.50469 1.5893 -4.69578e-19)
(2.32607 1.18373 2.65375e-19)
(2.27565 0.841637 4.10306e-20)
(2.33317 0.572525 -5.64096e-19)
(2.46985 0.357136 5.66595e-20)
(4.1337 2.79917 9.83686e-19)
(3.92198 2.99957 0)
(3.82165 2.86619 0)
(3.61006 2.7823 -2.68914e-19)
(3.32524 2.57473 3.90603e-19)
(2.96548 2.21782 0)
(2.67328 1.83029 -7.56439e-19)
(2.49554 1.45769 2.87286e-19)
(2.43927 1.1197 -2.95812e-19)
(2.48664 0.830946 8.1849e-19)
(2.61092 0.578545 2.16904e-19)
(4.08792 2.67268 -1.1062e-18)
(3.88818 2.89437 2.33166e-19)
(3.81223 2.76795 1.57155e-18)
(3.64069 2.72162 2.08418e-19)
(3.41659 2.58337 -1.18281e-18)
(3.12484 2.32936 5.15353e-19)
(2.86345 2.00407 -7.69989e-19)
(2.70512 1.67325 0)
(2.65422 1.34826 1.45203e-19)
(2.69429 1.04768 -1.8707e-19)
(2.80018 0.765037 -1.18628e-19)
(4.04434 2.55062 1.41661e-18)
(3.85421 2.78854 -2.0669e-18)
(3.79901 2.65839 -1.1752e-19)
(3.65976 2.63724 9.35125e-19)
(3.48943 2.54187 9.02607e-19)
(3.26945 2.36562 -5.50181e-19)
(3.06382 2.10844 -5.09584e-19)
(2.94255 1.82219 2.5077e-19)
(2.90882 1.51539 -1.45848e-19)
(2.94662 1.2081 1.48701e-19)
(3.03394 0.896711 -3.62776e-20)
(4.01134 2.43241 3.91153e-20)
(3.82707 2.68604 2.88164e-20)
(3.78847 2.54508 -4.34922e-20)
(3.67466 2.54075 -8.69271e-19)
(3.54984 2.47213 5.82949e-19)
(3.39761 2.34781 0)
(3.26381 2.15264 -1.52095e-19)
(3.19422 1.90803 6.07804e-19)
(3.18946 1.62042 -2.7614e-19)
(3.23084 1.31007 4.00389e-20)
(3.29855 0.973519 2.18271e-20)
(3.98314 2.32706 -1.33204e-18)
(3.80307 2.58581 -9.65227e-19)
(3.77782 2.43584 7.71035e-19)
(3.6845 2.44392 -1.02264e-18)
(3.5986 2.3946 7.38002e-19)
(3.51095 2.30686 -5.77414e-19)
(3.45489 2.15867 4.30951e-19)
(3.44989 1.94631 5.78329e-20)
(3.48615 1.67107 9.18216e-20)
(3.53798 1.35214 -1.34054e-19)
(3.58303 0.991119 -2.19164e-20)
(3.96124 2.23629 -1.32471e-18)
(3.7842 2.48755 1.02044e-18)
(3.76486 2.33918 0)
(3.68744 2.36143 0)
(3.63691 2.33416 4.95234e-20)
(3.61275 2.27778 -7.4501e-20)
(3.63677 2.15858 -4.71951e-20)
(3.70496 1.95856 1.27914e-19)
(3.79045 1.67689 -1.55739e-19)
(3.85904 1.33615 8.87045e-20)
(3.88574 0.941152 0)
(3.95143 2.16273 -1.43458e-18)
(3.75526 2.39294 1.09471e-18)
(3.72941 2.27315 7.92417e-19)
(3.6696 2.31393 -6.04275e-19)
(3.65534 2.313 -2.21333e-19)
(3.69704 2.2759 1.50834e-19)
(3.81699 2.14711 -2.20091e-19)
(3.97242 1.91458 -1.32403e-19)
(4.11213 1.59056 1.60159e-19)
(4.19006 1.21925 -9.06171e-20)
(4.18772 0.795297 0)
(3.88161 2.11723 -1.63065e-18)
(3.68512 2.30122 -3.01846e-19)
(3.65268 2.23172 4.55178e-19)
(3.6283 2.27158 3.39689e-19)
(3.67191 2.25461 7.42452e-19)
(3.83738 2.11508 0)
(4.05989 1.82636 2.32158e-19)
(4.26162 1.46535 3.66895e-20)
(4.40092 1.09835 6.10031e-20)
(4.46538 0.737397 -6.35016e-20)
(4.4287 0.364836 -1.03931e-19)
(3.69663 2.04712 -4.80778e-19)
(3.53893 2.19633 -1.18144e-20)
(3.55469 2.11721 5.32127e-19)
(3.62321 2.08185 -1.17133e-18)
(3.7827 1.86945 -5.56803e-19)
(4.00455 1.51034 3.91219e-19)
(4.20659 1.17486 1.79903e-20)
(4.36776 0.87997 1.70287e-19)
(4.49054 0.587543 -8.09994e-19)
(4.56503 0.292866 1.49902e-19)
(4.5333 -0.0461499 -2.59207e-19)
(3.28159 2.07746 -1.85367e-18)
(3.48492 1.86533 4.24448e-19)
(3.59965 1.7492 6.60176e-19)
(3.75664 1.50144 4.75301e-19)
(3.93267 1.18864 6.79794e-19)
(4.0968 0.930381 -6.82653e-19)
(4.24871 0.697898 8.09181e-19)
(4.3935 0.470178 3.33622e-20)
(4.52997 0.23102 7.91219e-19)
(4.641 -0.0238252 0)
(4.6583 -0.320323 -3.95314e-19)
(3.69696 1.47815 -9.3394e-20)
(3.7458 1.46317 -4.22332e-18)
(3.85177 1.18891 8.27265e-19)
(3.93544 0.95659 0)
(4.02077 0.762197 -7.82519e-19)
(4.12077 0.58653 0)
(4.24002 0.40744 -7.2356e-19)
(4.3739 0.213569 -4.76596e-19)
(4.51493 -0.00382398 0)
(4.64982 -0.248094 0)
(4.72562 -0.535496 8.36819e-19)
(5.48934 1.13817 -2.17612e-18)
(4.87697 1.16306 3.33543e-19)
(4.39465 0.697401 3.48775e-19)
(3.99171 0.359179 0)
(3.64202 0.145873 1.50287e-21)
(3.33833 0.0127884 -1.18082e-19)
(3.07854 -0.0752866 -1.2506e-19)
(2.85779 -0.142191 8.77007e-20)
(2.66685 -0.20062 3.02198e-20)
(2.49863 -0.253012 1.03816e-21)
(2.35077 -0.292492 4.15768e-21)
(3.2936 2.83523 1.81762e-18)
(3.66212 2.27208 -4.2518e-19)
(3.75592 1.76285 -2.93135e-19)
(3.68898 1.25149 -1.62597e-19)
(3.51605 0.834469 -9.85855e-20)
(3.28839 0.524132 2.44104e-19)
(3.04952 0.30373 0)
(2.82615 0.144938 1.04312e-19)
(2.62608 0.0235638 -2.44312e-19)
(2.44815 -0.0722952 1.62874e-19)
(2.29247 -0.139763 -1.80668e-19)
(1.89013 2.8831 5.68747e-18)
(2.54791 2.50525 -1.99638e-18)
(2.94407 2.22564 0)
(3.14487 1.82007 4.04221e-19)
(3.17793 1.39451 5.14121e-19)
(3.08729 1.01142 0)
(2.92562 0.699389 -7.59996e-20)
(2.73915 0.457109 5.6145e-20)
(2.55448 0.269866 1.65811e-19)
(2.38214 0.125165 -1.133e-19)
(2.22707 0.0246292 1.61925e-19)
(1.52649 2.64042 0)
(1.93108 2.37233 -1.49953e-18)
(2.21127 2.32532 1.09039e-18)
(2.52325 2.10095 -3.97942e-19)
(2.72156 1.76824 -5.06915e-19)
(2.76923 1.39903 -3.23069e-19)
(2.70336 1.05389 0)
(2.578 0.758401 1.29992e-20)
(2.43081 0.515521 -9.5149e-21)
(2.28203 0.321436 -2.43972e-20)
(2.14117 0.184739 -1.34122e-19)
(1.50367 2.40525 -2.37962e-18)
(1.75137 2.20072 2.06922e-18)
(1.88195 2.26832 -1.56984e-18)
(2.07757 2.19022 3.75167e-21)
(2.25363 1.99875 8.786e-19)
(2.36913 1.71262 -9.98198e-21)
(2.39628 1.38161 0)
(2.34928 1.0552 0)
(2.25997 0.761096 -3.09084e-20)
(2.15103 0.514959 1.63929e-19)
(2.03375 0.337073 1.53599e-21)
(1.64309 2.25634 -8.03857e-19)
(1.75271 2.08127 4.87759e-19)
(1.77281 2.17437 1.13472e-18)
(1.86881 2.16187 -8.56646e-19)
(1.96908 2.06679 0)
(2.04064 1.88268 -5.17024e-19)
(2.06462 1.62705 3.89477e-20)
(2.04487 1.33249 2.45893e-19)
(1.99618 1.02974 -1.21659e-19)
(1.93272 0.74517 8.93017e-20)
(1.86399 0.515213 0)
(1.85324 2.17927 1.17447e-20)
(1.84993 2.02457 1.66249e-20)
(1.78495 2.1008 0)
(1.78837 2.10564 5.95923e-19)
(1.80393 2.05361 -5.29363e-19)
(1.81173 1.92702 4.05595e-19)
(1.79995 1.72578 -2.85762e-19)
(1.77159 1.46811 2.19622e-19)
(1.73533 1.18054 -1.85433e-19)
(1.69616 0.892089 -1.2539e-19)
(1.65645 0.647559 9.17642e-20)
(2.07127 2.13744 -1.09745e-20)
(1.98781 2.00993 0)
(1.8729 2.05161 0)
(1.80091 2.05214 3.00673e-20)
(1.73509 2.01378 4.967e-20)
(1.66582 1.9172 0)
(1.59083 1.75354 0)
(1.52186 1.52897 -4.06552e-20)
(1.47246 1.26181 5.19549e-20)
(1.44171 0.979369 4.2839e-20)
(1.41881 0.731371 4.90267e-20)
(2.26971 2.10248 -5.30078e-21)
(2.13598 2.01229 0)
(2.00034 2.01956 1.27544e-20)
(1.87711 2.00775 2.45822e-20)
(1.74889 1.96793 0)
(1.60733 1.88144 3.94926e-20)
(1.45806 1.73854 -6.53305e-20)
(1.32475 1.5383 0)
(1.23686 1.28962 -6.72189e-20)
(1.1994 1.01584 -4.2031e-20)
(1.18906 0.773904 -1.1305e-19)
(2.44891 2.07007 2.71754e-20)
(2.28386 2.01882 0)
(2.1469 1.99908 -3.47001e-20)
(1.99027 1.97438 -2.38166e-20)
(1.81815 1.92374 -2.35437e-20)
(1.62478 1.83503 -2.04005e-20)
(1.41176 1.69893 8.54427e-20)
(1.20003 1.50846 2.1268e-20)
(1.04671 1.27184 6.03424e-20)
(0.98116 1.00319 1.27202e-20)
(0.970534 0.759902 -9.38334e-21)
(2.61608 2.04682 3.27006e-19)
(2.43324 2.02673 -6.01636e-22)
(2.30323 1.98588 -1.5709e-19)
(2.12632 1.95176 0)
(1.92714 1.88719 0)
(1.69622 1.7867 0)
(1.43441 1.64155 8.36288e-20)
(1.16083 1.44973 -1.44718e-19)
(0.928366 1.21669 9.49177e-20)
(0.802198 0.944429 -2.66422e-19)
(0.776175 0.69011 -4.45027e-20)
(2.7765 2.02681 -5.0096e-20)
(2.57999 2.04043 -5.61193e-19)
(2.45838 1.97937 2.30717e-19)
(2.27572 1.93593 0)
(2.064 1.85636 0)
(1.81026 1.7406 -3.68788e-19)
(1.51487 1.57857 -1.1182e-19)
(1.19306 1.36809 1.56832e-19)
(0.892629 1.12044 2.10101e-19)
(0.693258 0.847133 -2.56907e-19)
(0.633963 0.569928 -2.36125e-19)
(2.92771 2.00398 4.63336e-19)
(2.71968 2.05575 7.4862e-19)
(2.61163 1.97536 -5.19893e-19)
(2.43308 1.92141 0)
(2.21833 1.82793 0)
(1.95585 1.69451 -3.17138e-19)
(1.64358 1.51152 0)
(1.29174 1.27503 0)
(0.940081 0.997331 0)
(0.67095 0.702092 7.41737e-19)
(0.544095 0.421155 2.61687e-19)
(3.07231 1.98145 -4.37463e-19)
(2.85512 2.06772 0)
(2.76235 1.97176 3.17717e-19)
(2.59192 1.90573 8.38016e-19)
(2.38317 1.79827 -1.779e-19)
(2.12516 1.64552 3.16636e-19)
(1.81275 1.4387 -3.2817e-19)
(1.45066 1.17285 -5.23483e-19)
(1.06989 0.85927 -7.00544e-19)
(0.744093 0.530805 6.63598e-19)
(0.557096 0.215106 -2.97389e-19)
(3.21042 1.96453 8.93208e-19)
(2.98596 2.07725 -1.89829e-18)
(2.90801 1.96649 7.96068e-19)
(2.74908 1.88661 -2.95018e-19)
(2.55359 1.7636 6.04178e-19)
(2.31141 1.59005 -9.09563e-19)
(2.01474 1.35763 -4.17026e-19)
(1.66317 1.06148 1.08885e-18)
(1.27783 0.711866 0)
(0.916858 0.34789 -1.91694e-18)
(0.688461 -0.0186086 -4.33657e-19)
(3.33938 1.94931 1.55844e-19)
(3.11115 2.07983 1.01423e-18)
(3.0465 1.95526 -1.11932e-18)
(2.90234 1.85911 0)
(2.72611 1.7181 -2.95946e-19)
(2.50948 1.52269 4.88814e-19)
(2.24343 1.26539 0)
(1.92321 0.941967 0)
(1.55971 0.561068 5.25684e-19)
(1.19095 0.166414 1.07301e-18)
(0.940503 -0.239328 -6.46192e-20)
(3.45987 1.93469 0)
(3.23041 2.07168 -1.78627e-20)
(3.17746 1.93307 1.11168e-18)
(3.05112 1.81718 -8.57993e-19)
(2.89921 1.65577 0)
(2.71611 1.43896 1.24661e-18)
(2.49329 1.16054 6.36354e-20)
(2.22334 0.816649 -7.57012e-19)
(1.9086 0.412377 0)
(1.5681 -0.0137907 3.92072e-19)
(1.30148 -0.450714 -6.23846e-19)
(3.57003 1.9197 9.17466e-19)
(3.34201 2.04747 1.83343e-19)
(3.29961 1.89324 0)
(3.19363 1.75595 -1.045e-18)
(3.07016 1.57454 7.99672e-19)
(2.92658 1.33961 0)
(2.75611 1.04613 0)
(2.55036 0.691068 0)
(2.30449 0.276774 -6.56838e-19)
(2.01699 -0.166303 1.43571e-18)
(1.78696 -0.639204 0)
(3.66297 1.89702 1.07455e-18)
(3.44005 1.99923 0)
(3.40743 1.83214 9.09787e-20)
(3.3236 1.67648 1.46361e-19)
(3.23163 1.47801 -1.17815e-19)
(3.13211 1.22883 0)
(3.02064 0.926221 1.49339e-19)
(2.88894 0.568862 7.03809e-19)
(2.72955 0.15678 -6.9026e-19)
(2.53161 -0.291368 -4.98948e-19)
(2.35736 -0.773981 -6.46779e-19)
(3.72946 1.85782 0)
(3.51637 1.92753 0)
(3.49268 1.75291 -9.874e-20)
(3.4317 1.58171 -1.56159e-19)
(3.37387 1.36706 1.27689e-19)
(3.32293 1.10623 0)
(3.27567 0.800884 -1.54323e-19)
(3.22278 0.45111 2.39947e-19)
(3.15553 0.0542612 2.78593e-21)
(3.05951 -0.384317 0)
(2.974 -0.866395 2.66873e-21)
(3.76377 1.80868 3.16405e-18)
(3.56642 1.83277 1.07166e-19)
(3.54865 1.65433 7.07908e-20)
(3.51276 1.46525 -1.42641e-18)
(3.4933 1.2339 -1.43807e-19)
(3.49563 0.966557 0)
(3.51452 0.668932 -1.67683e-19)
(3.5383 0.338932 -7.47234e-19)
(3.55589 -0.0292825 3.62397e-19)
(3.55568 -0.437425 -2.49781e-19)
(3.55557 -0.883958 -6.74719e-20)
(3.75473 1.68598 -2.50162e-19)
(3.57915 1.71424 3.01028e-18)
(3.58266 1.52136 -2.46682e-18)
(3.57609 1.3125 0)
(3.60066 1.07021 -1.44475e-18)
(3.65697 0.809871 9.39558e-19)
(3.73508 0.535301 5.25762e-19)
(3.82283 0.238211 -2.35288e-19)
(3.91259 -0.0921259 3.50347e-19)
(4.00165 -0.459373 -5.97397e-20)
(4.06329 -0.866294 -8.97437e-20)
(3.70741 1.74774 6.75617e-19)
(3.60905 1.59184 -4.82571e-19)
(3.61355 1.36184 1.75031e-18)
(3.64534 1.12932 -2.01392e-18)
(3.71733 0.890792 1.09555e-18)
(3.81834 0.654631 0)
(3.93732 0.415229 -3.87365e-19)
(4.06567 0.158766 9.89521e-19)
(4.19911 -0.12787 -1.19411e-18)
(4.33809 -0.450831 -3.23716e-19)
(4.45049 -0.819121 5.95234e-19)
(3.75022 1.23157 -5.31737e-19)
(3.67973 1.21944 1.3989e-18)
(3.74128 1.02088 -1.84606e-18)
(3.81863 0.83672 1.25707e-18)
(3.91898 0.64924 0)
(4.03455 0.463845 0)
(4.16175 0.271357 0)
(4.29414 0.0645563 -5.73894e-19)
(4.43059 -0.16773 4.1303e-19)
(4.56876 -0.429916 2.9727e-19)
(4.67949 -0.731409 2.94322e-19)
(7.53984 -4.85431 1.90745e-20)
(6.36766 -4.16178 0)
(6.00135 -3.28977 0)
(5.68951 -2.61609 6.61393e-21)
(5.36317 -2.08796 0)
(5.04674 -1.68921 -7.4549e-20)
(4.74953 -1.38563 5.73295e-20)
(4.47641 -1.14996 0)
(4.23044 -0.962646 -4.06537e-20)
(4.01021 -0.811525 3.17366e-20)
(3.81391 -0.699368 1.49279e-20)
(3.6002 -5.36543 -3.15203e-19)
(3.96532 -4.91298 -3.50512e-19)
(4.37204 -4.21509 0)
(4.59256 -3.51257 -1.52973e-18)
(4.63651 -2.88233 1.18674e-18)
(4.55904 -2.34853 -6.33098e-19)
(4.41205 -1.91405 4.90937e-19)
(4.23295 -1.56867 1.99795e-19)
(4.04627 -1.29592 1.22209e-19)
(3.8655 -1.08077 -2.70844e-19)
(3.69607 -0.918004 2.13951e-19)
(1.4951 -4.3916 6.13434e-18)
(2.38281 -4.49792 3.93883e-19)
(2.94812 -4.27425 4.13718e-18)
(3.42188 -3.83919 -5.77804e-18)
(3.73641 -3.32306 2.03032e-18)
(3.89473 -2.80677 -4.34211e-19)
(3.93137 -2.33394 1.26762e-18)
(3.88537 -1.92743 -2.01732e-19)
(3.79269 -1.59132 -1.32399e-19)
(3.68012 -1.31942 4.62172e-19)
(3.5591 -1.10978 -5.31014e-19)
(0.689556 -3.45176 4.46612e-18)
(1.30088 -3.65609 -4.07051e-18)
(1.88348 -3.81432 2.40479e-18)
(2.44511 -3.70848 8.23663e-19)
(2.88234 -3.39947 -1.14859e-18)
(3.1917 -3.00314 -6.69739e-19)
(3.37884 -2.58473 -2.25717e-18)
(3.46485 -2.18631 6.85798e-19)
(3.47585 -1.83199 0)
(3.43424 -1.53226 -4.58451e-19)
(3.36357 -1.29014 0)
(0.507633 -2.96265 -3.46613e-18)
(0.897468 -3.09443 2.9647e-18)
(1.18935 -3.2391 4.34692e-18)
(1.61699 -3.28393 -4.12858e-18)
(2.077 -3.203 1.13733e-18)
(2.46964 -2.97708 -1.55082e-18)
(2.76104 -2.66007 3.31041e-20)
(2.95278 -2.31006 -6.94464e-19)
(3.06488 -1.96681 9.0586e-19)
(3.12112 -1.65295 -6.50647e-19)
(3.12479 -1.38972 7.54212e-19)
(0.494343 -2.57743 8.13339e-19)
(0.78967 -2.66117 6.75944e-19)
(0.965888 -2.7927 0)
(1.26512 -2.85529 -2.25848e-18)
(1.60072 -2.83541 5.63449e-18)
(1.94588 -2.71508 -1.07033e-19)
(2.25903 -2.50986 -2.27858e-18)
(2.51231 -2.24942 -1.41305e-18)
(2.69716 -1.96595 1.09384e-18)
(2.81858 -1.68832 8.25353e-19)
(2.8799 -1.44421 2.65256e-20)
(0.482338 -2.257 -7.61306e-19)
(0.723247 -2.28636 0)
(0.847041 -2.39086 -8.65215e-19)
(1.07336 -2.45156 -2.75655e-18)
(1.33574 -2.4614 1.01753e-18)
(1.62186 -2.40212 -7.66961e-19)
(1.90477 -2.27397 -2.17128e-18)
(2.15936 -2.09071 1.60804e-18)
(2.37001 -1.87301 0)
(2.52973 -1.64408 -1.3503e-18)
(2.63086 -1.42814 2.69887e-18)
(0.468231 -1.99312 -1.99753e-18)
(0.679434 -1.9801 2.04514e-18)
(0.779393 -2.0542 1.63166e-18)
(0.959511 -2.10259 -2.44443e-18)
(1.1697 -2.11838 -2.47447e-20)
(1.40604 -2.08888 1.44592e-18)
(1.65249 -2.01012 0)
(1.89072 -1.88603 5.55539e-20)
(2.10561 -1.72689 1.0928e-18)
(2.28463 -1.54921 0)
(2.40953 -1.37682 -9.69226e-19)
(0.461976 -1.76341 0)
(0.654076 -1.72299 0)
(0.738427 -1.77353 0)
(0.890133 -1.80899 5.80791e-19)
(1.06522 -1.8222 8.46896e-19)
(1.26412 -1.805 -6.83815e-19)
(1.47757 -1.75385 0)
(1.69334 -1.6687 -6.95043e-19)
(1.89968 -1.55322 -4.66476e-19)
(2.08375 -1.4167 6.80878e-19)
(2.2241 -1.27747 9.31863e-19)
(0.471954 -1.56615 -2.57544e-19)
(0.648176 -1.50096 0)
(0.716416 -1.53325 0)
(0.847082 -1.5578 -4.97326e-19)
(0.996971 -1.56628 -8.23143e-19)
(1.16837 -1.55336 6.05136e-19)
(1.35536 -1.51681 -4.63707e-19)
(1.54972 -1.45558 0)
(1.74292 -1.36994 4.65428e-20)
(1.92367 -1.26369 1.9824e-20)
(2.06913 -1.14743 0)
(0.489617 -1.40937 2.49004e-19)
(0.64782 -1.31277 0)
(0.703952 -1.32612 0)
(0.819322 -1.33931 4.84463e-19)
(0.950846 -1.34145 3.64452e-19)
(1.10214 -1.32863 -8.3878e-19)
(1.26897 -1.2995 4.27333e-19)
(1.44546 -1.25303 -6.08742e-19)
(1.62555 -1.18834 2.52107e-20)
(1.79964 -1.10717 6.30303e-19)
(1.94035 -1.02005 8.44216e-19)
(0.497518 -1.27225 1.15366e-19)
(0.635738 -1.14587 -3.54337e-19)
(0.690443 -1.14226 5.53156e-19)
(0.798042 -1.14453 -3.21433e-19)
(0.917953 -1.13967 0)
(1.05558 -1.12467 0)
(1.20792 -1.09889 0)
(1.37067 -1.06166 -2.82104e-19)
(1.53955 -1.01181 -1.91646e-19)
(1.70699 -0.949529 2.37725e-21)
(1.84732 -0.88117 -2.2027e-19)
(0.50127 -1.13266 1.0805e-19)
(0.622434 -0.985332 -1.64902e-19)
(0.6783 -0.970111 4.77096e-22)
(0.780927 -0.964136 4.04142e-19)
(0.893403 -0.953227 -2.02357e-20)
(1.02226 -0.935425 -1.20019e-19)
(1.16499 -0.910921 1.55541e-19)
(1.31829 -0.879545 -4.82647e-21)
(1.47906 -0.840077 -9.85523e-20)
(1.64193 -0.790907 0)
(1.78334 -0.732317 -1.16497e-20)
(0.509934 -1.00617 2.4704e-20)
(0.617644 -0.834517 -2.88997e-20)
(0.671038 -0.806931 -1.08939e-19)
(0.768307 -0.793004 1.77858e-19)
(0.875363 -0.776413 2.09283e-20)
(0.998788 -0.755663 0)
(1.13578 -0.731529 -1.37543e-19)
(1.28322 -0.704372 0)
(1.43834 -0.673131 -1.69846e-19)
(1.59696 -0.635445 2.41542e-19)
(1.73338 -0.590626 0)
(0.512472 -0.8907 0)
(0.60457 -0.690593 1.45032e-19)
(0.661648 -0.64949 2.20538e-19)
(0.758082 -0.627331 1.5537e-19)
(0.863273 -0.605046 0)
(0.98459 -0.581341 -3.88873e-19)
(1.11916 -0.557433 1.583e-19)
(1.26389 -0.534169 1.09621e-19)
(1.41574 -0.510647 8.60054e-20)
(1.5717 -0.483735 -2.39984e-19)
(1.70816 -0.449139 -7.8883e-20)
(0.515996 -0.766284 0)
(0.590924 -0.542391 0)
(0.65441 -0.49112 -6.25595e-19)
(0.751774 -0.462185 -3.37886e-19)
(0.857547 -0.434887 -7.16434e-19)
(0.979716 -0.408721 5.79345e-19)
(1.11493 -0.385682 0)
(1.25967 -0.367116 3.83318e-19)
(1.41002 -0.352022 0)
(1.56417 -0.336298 3.944e-19)
(1.6992 -0.312113 0)
(0.526887 -0.643831 0)
(0.586102 -0.394167 -2.57015e-19)
(0.654332 -0.33133 2.36809e-19)
(0.751961 -0.294808 0)
(0.859763 -0.262386 4.78005e-19)
(0.985424 -0.23443 0)
(1.12417 -0.213834 0)
(1.27113 -0.202073 -3.85477e-19)
(1.42088 -0.197376 0)
(1.57251 -0.194551 -3.94799e-19)
(1.70344 -0.182204 4.99156e-19)
(0.537247 -0.525292 3.10115e-19)
(0.579368 -0.246919 0)
(0.656974 -0.168832 3.87302e-19)
(0.758332 -0.12282 5.14673e-19)
(0.872027 -0.0850232 -3.79438e-19)
(1.00468 -0.0566523 0)
(1.14956 -0.0411336 0)
(1.3005 -0.0395641 0)
(1.4493 -0.0482944 0)
(1.59733 -0.0606396 -6.09273e-19)
(1.72296 -0.0608161 -5.00714e-19)
(0.551503 -0.398464 -3.26858e-19)
(0.573549 -0.0918591 0)
(0.666557 0.00265019 0)
(0.776425 0.0586059 -5.09704e-20)
(0.901383 0.100243 6.90012e-19)
(1.04537 0.125328 -7.27326e-19)
(1.19854 0.130586 0)
(1.35188 0.117016 0)
(1.49692 0.0917629 0)
(1.6373 0.0634169 6.12583e-19)
(1.75744 0.0504798 4.061e-19)
(0.577645 -0.257437 0)
(0.576719 0.0765352 -3.75116e-19)
(0.691653 0.188359 0)
(0.815853 0.253274 0)
(0.957617 0.294385 -8.51173e-20)
(1.11592 0.308902 1.27124e-19)
(1.27637 0.295936 0)
(1.42783 0.261354 0)
(1.56329 0.217247 -2.83829e-19)
(1.68896 0.174128 0)
(1.79997 0.149265 0)
(0.619932 -0.100962 -2.38831e-19)
(0.598013 0.26426 7.60481e-19)
(0.744065 0.392031 -2.6273e-19)
(0.891866 0.461021 0)
(1.05549 0.491987 -6.81369e-19)
(1.22701 0.484091 6.80461e-19)
(1.38776 0.443411 0)
(1.52763 0.383575 0)
(1.64473 0.321079 2.91509e-19)
(1.74858 0.266668 0)
(1.84366 0.232539 2.72495e-19)
(0.730452 0.103708 4.42977e-19)
(0.643917 0.479358 0)
(0.852494 0.612749 -2.06302e-19)
(1.03098 0.671795 1.78938e-19)
(1.21437 0.674174 0)
(1.38753 0.628791 -1.25088e-19)
(1.53257 0.554076 -1.56442e-19)
(1.6462 0.470895 1.15022e-19)
(1.73475 0.395985 0)
(1.81128 0.337293 0)
(1.88732 0.298504 -4.52462e-20)
(0.671954 0.189625 -2.05261e-19)
(0.797748 0.66982 -1.36008e-19)
(1.01222 0.812886 -2.61836e-21)
(1.23594 0.835099 4.40697e-20)
(1.42868 0.788989 -8.08111e-20)
(1.58125 0.701206 -1.17255e-20)
(1.69067 0.600782 1.27759e-19)
(1.76587 0.508176 1.1529e-19)
(1.82008 0.434469 -2.21512e-19)
(1.86752 0.383272 1.20027e-19)
(1.92254 0.350878 -4.75706e-19)
(2.35438 0.940006 0)
(1.31903 1.13885 0)
(1.77882 0.993089 0)
(1.83023 0.90901 -5.32816e-19)
(1.86849 0.796952 7.70244e-19)
(1.88843 0.679098 -1.90082e-19)
(1.89685 0.575511 0)
(1.89893 0.493164 5.97314e-20)
(1.90255 0.435345 -7.26219e-20)
(1.91432 0.40283 0)
(1.9438 0.387394 0)
(7.97704 -2.50046 -7.40808e-18)
(6.22368 -1.03749 5.39763e-18)
(6.55254 -1.39035 2.29411e-18)
(6.49168 -1.47125 -1.83422e-18)
(6.0014 -1.28194 3.37753e-19)
(5.49705 -1.08815 -4.03323e-19)
(5.06386 -0.907722 1.77859e-19)
(4.70323 -0.758182 0)
(4.39644 -0.640547 8.53336e-20)
(4.12914 -0.543794 3.82046e-20)
(3.89869 -0.476147 -6.75171e-20)
(5.08134 -1.85887 1.46168e-18)
(4.18998 -0.302345 3.28763e-18)
(5.36662 -0.236807 2.06849e-18)
(6.00132 -0.324378 -3.46554e-18)
(6.05218 -0.325662 -1.03444e-18)
(5.80801 -0.333683 -6.97741e-19)
(5.36008 -0.329186 6.61635e-19)
(4.91181 -0.305545 -3.81839e-19)
(4.54872 -0.273689 -6.10752e-20)
(4.23451 -0.241112 0)
(3.97601 -0.2242 0)
(2.33757 -2.86339 0)
(2.97491 -1.19426 2.25782e-20)
(4.14807 -0.263628 2.33114e-18)
(5.01705 0.16121 2.62562e-19)
(5.50213 0.371602 6.61344e-19)
(5.64653 0.408205 0)
(5.44487 0.340848 1.65833e-18)
(5.03513 0.2352 -8.64171e-19)
(4.62846 0.156033 0)
(4.29102 0.107105 0)
(4.00541 0.0589887 3.55794e-19)
(0.882725 -6.32063 1.90867e-18)
(2.21433 -3.12104 -1.61291e-18)
(3.14881 -1.23068 0)
(4.03989 -0.0954297 1.35897e-18)
(4.74644 0.575284 -4.04668e-18)
(5.17064 0.885201 -4.54245e-18)
(5.23434 0.923926 3.90405e-19)
(4.99182 0.795528 2.56009e-18)
(4.61779 0.621066 0)
(4.2692 0.486975 -1.0062e-18)
(3.97746 0.376253 -5.04694e-19)
(1.04718 -6.61605 -1.79131e-18)
(1.5982 -4.51768 -1.51279e-18)
(2.3923 -2.36169 2.02229e-18)
(3.24263 -0.736657 2.87083e-18)
(4.01082 0.388252 1.88954e-18)
(4.57715 1.05467 2.36515e-18)
(4.83602 1.31814 0)
(4.7716 1.27607 -3.58813e-18)
(4.49917 1.07873 1.14565e-18)
(4.17259 0.870101 1.984e-18)
(3.87227 0.700871 -3.90011e-19)
(1.10097 -6.87064 1.82151e-20)
(1.34665 -5.69728 1.61529e-19)
(1.86965 -3.52929 -2.07289e-18)
(2.61816 -1.55733 -2.77097e-18)
(3.36377 -0.042003 0)
(3.97808 0.979602 1.23688e-18)
(4.35208 1.51671 -9.31535e-19)
(4.43 1.63436 1.90308e-18)
(4.26853 1.48072 2.13058e-19)
(4.00155 1.2372 0)
(3.73161 0.997593 8.3542e-19)
(1.17924 -7.02888 0)
(1.33786 -6.15022 1.16797e-18)
(1.54051 -4.56015 -9.1609e-19)
(2.13832 -2.44453 1.34792e-18)
(2.81388 -0.618094 0)
(3.41754 0.731047 0)
(3.84148 1.55093 -1.85304e-18)
(4.01484 1.86642 0)
(3.95132 1.80568 -1.27004e-18)
(3.74905 1.56816 0)
(3.54603 1.27412 -8.21272e-19)
(1.21058 -7.19972 -3.41152e-18)
(1.36845 -6.4755 0)
(1.40265 -5.36266 8.55736e-19)
(1.7844 -3.34373 -1.30736e-18)
(2.35243 -1.28528 -2.34529e-19)
(2.90698 0.361787 -1.20852e-18)
(3.33242 1.4568 1.79813e-18)
(3.5569 1.98365 -1.24578e-18)
(3.57008 2.0446 -6.73545e-19)
(3.4336 1.84313 5.05784e-19)
(3.28774 1.52667 0)
(1.22642 -7.37847 -2.54857e-18)
(1.38595 -6.72171 5.02965e-19)
(1.35477 -5.78267 -8.01885e-19)
(1.5449 -4.09318 -6.4368e-19)
(1.97238 -1.9742 0)
(2.44438 -0.087591 1.35362e-18)
(2.83418 1.26179 -9.73867e-19)
(3.07208 1.99786 1.21673e-18)
(3.13761 2.19415 3.59602e-19)
(3.05906 2.04992 -6.96307e-19)
(2.99353 1.73088 6.64128e-20)
(1.23609 -7.55444 5.45625e-18)
(1.38762 -6.9475 -2.37125e-18)
(1.32788 -6.11143 0)
(1.39018 -4.73591 6.2074e-19)
(1.66253 -2.64676 0)
(2.02194 -0.586546 -3.5031e-19)
(2.34719 0.987265 9.58554e-19)
(2.56854 1.91902 -4.73049e-21)
(2.66544 2.25187 9.78754e-20)
(2.64034 2.17713 -7.10389e-20)
(2.64017 1.88369 1.3171e-19)
(1.24247 -7.70646 -4.63886e-18)
(1.38595 -7.15556 1.8137e-18)
(1.30104 -6.38473 9.1497e-20)
(1.29543 -5.17538 0)
(1.40713 -3.25632 0)
(1.63297 -1.11376 3.47352e-19)
(1.86925 0.644273 0)
(2.04996 1.7503 1.42186e-19)
(2.16073 2.21246 -3.4246e-19)
(2.18692 2.21135 0)
(2.23884 1.958 7.49938e-20)
(1.21375 -7.84826 0)
(1.34687 -7.35261 -1.34801e-18)
(1.25207 -6.62307 1.32134e-18)
(1.20394 -5.5178 0)
(1.19076 -3.78167 -2.35794e-18)
(1.27347 -1.64056 3.49708e-18)
(1.40053 0.248891 -7.09589e-20)
(1.52192 1.49652 7.75431e-20)
(1.63259 2.07132 -3.69401e-19)
(1.70756 2.14297 -5.15462e-19)
(1.81484 1.93234 -7.43916e-20)
(1.18477 -7.97051 -5.30811e-19)
(1.30108 -7.50745 -4.34082e-19)
(1.1871 -6.82002 6.83027e-19)
(1.09029 -5.8005 0)
(0.985893 -4.23122 4.6854e-19)
(0.934582 -2.14776 -7.05232e-19)
(0.939751 -0.188835 0)
(0.991094 1.1582 1.26086e-18)
(1.09421 1.82281 -9.479e-19)
(1.21214 1.96589 5.1347e-19)
(1.40356 1.81231 0)
(1.16339 -8.05132 -1.55921e-18)
(1.23869 -7.61906 0)
(1.10098 -6.98146 -3.4043e-18)
(0.953216 -6.04266 3.2604e-18)
(0.765902 -4.63041 0)
(0.607453 -2.63994 0)
(0.48876 -0.669537 -1.89985e-18)
(0.468751 0.731932 1.35474e-18)
(0.56595 1.46088 -9.23288e-19)
(0.728012 1.67399 0)
(0.978547 1.59257 1.01633e-18)
(1.13902 -8.09188 -9.94035e-19)
(1.15055 -7.6891 3.27214e-18)
(0.992835 -7.09617 -3.85466e-18)
(0.792737 -6.24613 3.03582e-20)
(0.524577 -4.97561 -3.44031e-18)
(0.284074 -3.11689 0)
(0.0625062 -1.19115 0)
(-0.0271404 0.216738 1.31171e-18)
(0.0693189 0.984408 0)
(0.28094 1.26182 0)
(0.577105 1.26245 -2.31763e-18)
(1.11502 -8.09075 1.0141e-18)
(1.04324 -7.70842 0)
(0.860343 -7.14555 1.28925e-18)
(0.606361 -6.36808 3.01307e-18)
(0.276776 -5.2849 5.03376e-18)
(-0.0448307 -3.62799 -2.58993e-18)
(-0.332312 -1.75077 0)
(-0.466861 -0.381844 0)
(-0.367931 0.393031 0)
(-0.106927 0.730343 0)
(0.251854 0.823171 1.58725e-18)
(1.08485 -8.03145 -9.20339e-19)
(0.916656 -7.67403 3.02095e-18)
(0.701522 -7.14566 -2.36557e-18)
(0.396999 -6.436 -1.84115e-19)
(0.0182108 -5.4754 -1.45511e-18)
(-0.3651 -4.15753 0)
(-0.683483 -2.40786 0)
(-0.831922 -1.06996 0)
(-0.714559 -0.315905 0)
(-0.412766 0.0784319 0)
(0.0267804 0.266147 -4.94238e-19)
(1.03611 -7.89561 -8.85871e-19)
(0.762519 -7.56986 0)
(0.506071 -7.08737 0)
(0.154636 -6.46526 -1.88753e-18)
(-0.253387 -5.65362 -1.27243e-18)
(-0.6638 -4.58791 2.16104e-19)
(-0.973283 -3.19289 0)
(-1.11259 -1.86118 0)
(-0.961718 -1.12812 0)
(-0.637624 -0.684644 -7.47735e-19)
(-0.118862 -0.350605 1.04998e-18)
(0.953284 -7.66413 -9.58572e-19)
(0.569165 -7.37563 0)
(0.25895 -6.95776 0)
(-0.138183 -6.45466 0)
(-0.557147 -5.82862 0)
(-0.934491 -5.03157 2.01225e-18)
(-1.19292 -3.98861 1.06024e-18)
(-1.28286 -2.81471 0)
(-1.08328 -2.03287 0)
(-0.736058 -1.5233 0)
(-0.235399 -1.04522 6.2682e-20)
(0.802266 -7.30542 2.43723e-18)
(0.313615 -7.06757 -5.02368e-18)
(-0.0628839 -6.75827 1.90767e-18)
(-0.48765 -6.43598 0)
(-0.874546 -6.05824 0)
(-1.15916 -5.55635 0)
(-1.29853 -4.83345 5.65333e-19)
(-1.30632 -3.92378 -1.2507e-18)