/*--------------------------------*- C++ -*----------------------------------*\
| =========                 |                                                 |
| \\      /  F ield         | OpenFOAM: The Open Source CFD Toolbox           |
|  \\    /   O peration     | Version:  3.0.1                                 |
|   \\  /    A nd           | Web:      www.OpenFOAM.org                      |
|    \\/     M anipulation  |                                                 |
\*---------------------------------------------------------------------------*/
FoamFile
{
    version     2.0;
    format      ascii;
    class       surfaceScalarField;
    location    "0.357119";
    object      phi;
}
// * * * * * * * * * * * * * * * * * * * * * * * * * * * * * * * * * * * * * //

dimensions      [0 3 -1 0 0 0 0];

internalField   nonuniform List<scalar> 
32369
(
-1.03641e-05
1.8236e-05
-7.87184e-06
-1.82439e-05
1.63989e-05
-8.51915e-06
-2.69199e-05
1.82473e-05
-9.57129e-06
-3.54205e-05
1.90832e-05
-1.05826e-05
-4.40671e-05
2.08335e-05
-1.21869e-05
-5.30689e-05
2.34586e-05
-1.44569e-05
-6.28627e-05
2.72068e-05
-1.7413e-05
-7.38965e-05
3.2237e-05
-2.12032e-05
-8.66414e-05
3.8839e-05
-2.60941e-05
-0.000101625
4.74353e-05
-3.24519e-05
5.86463e-05
-4.07456e-05
-0.000119526
-6.51531e-07
1.88875e-05
-2.53956e-06
1.8287e-05
-8.68276e-06
2.43905e-05
-1.5947e-05
2.63474e-05
-2.46687e-05
2.95552e-05
-3.42616e-05
3.30515e-05
-4.49691e-05
3.79143e-05
-5.70595e-05
4.43274e-05
-7.10091e-05
5.27886e-05
-8.73345e-05
6.37607e-05
7.79572e-05
-0.000106645
8.95919e-07
1.79916e-05
-4.33833e-08
1.92263e-05
-3.2186e-06
2.75657e-05
-7.69325e-06
3.0822e-05
-1.44913e-05
3.63533e-05
-2.28461e-05
4.14063e-05
-3.2656e-05
4.77242e-05
-4.40573e-05
5.57287e-05
-5.73082e-05
6.60395e-05
-7.28685e-05
7.93209e-05
9.64334e-05
-9.13447e-05
6.9485e-07
1.72968e-05
-5.08905e-07
2.043e-05
-2.13037e-06
2.91872e-05
-4.91304e-06
3.36047e-05
-9.65821e-06
4.10984e-05
-1.58788e-05
4.76269e-05
-2.3927e-05
5.57724e-05
-3.35918e-05
6.53935e-05
-4.51076e-05
7.75553e-05
-5.87318e-05
9.29451e-05
0.000112542
-7.48401e-05
5.5289e-07
1.67439e-05
-7.14841e-07
2.16978e-05
-1.80653e-06
3.02788e-05
-3.82348e-06
3.56217e-05
-7.04424e-06
4.43192e-05
-1.14273e-05
5.20099e-05
-1.74776e-05
6.18227e-05
-2.51328e-05
7.30487e-05
-3.45591e-05
8.69816e-05
-4.58771e-05
0.000104263
0.000126156
-5.94912e-05
6.46798e-07
1.60971e-05
-2.28523e-07
2.25731e-05
-9.41262e-07
3.09916e-05
-2.55285e-06
3.72333e-05
-4.79692e-06
4.65632e-05
-7.91875e-06
5.51318e-05
-1.23846e-05
6.62886e-05
-1.82035e-05
7.88676e-05
-2.55282e-05
9.43063e-05
-3.459e-05
0.000113325
0.000137163
-4.55974e-05
7.63358e-07
1.53337e-05
3.27388e-07
2.30091e-05
1.05611e-08
3.13084e-05
-1.22037e-06
3.84642e-05
-2.74033e-06
4.80832e-05
-4.96982e-06
5.73613e-05
-8.15898e-06
6.94777e-05
-1.23792e-05
8.30878e-05
-1.79681e-05
9.98951e-05
-2.49833e-05
0.00012034
0.000145845
-3.36654e-05
7.34391e-07
1.45993e-05
5.98728e-07
2.31447e-05
6.0173e-07
3.13054e-05
-2.0886e-07
3.92748e-05
-1.09461e-06
4.8969e-05
-2.62826e-06
5.88949e-05
-4.75926e-06
7.16087e-05
-7.68477e-06
8.60133e-05
-1.16453e-05
0.000103856
-1.67488e-05
0.000125444
0.0001523
-2.32034e-05
6.8422e-07
1.39151e-05
9.01817e-07
2.29271e-05
1.22332e-06
3.09839e-05
8.12524e-07
3.96856e-05
4.7002e-07
4.93115e-05
-4.60102e-07
5.9825e-05
-1.68393e-06
7.28326e-05
-3.53672e-06
8.78661e-05
-6.09375e-06
0.000106413
-9.57386e-06
0.000128924
0.000156843
-1.41167e-05
9.49218e-07
1.29659e-05
1.61622e-06
2.22601e-05
2.23406e-06
3.03661e-05
2.27486e-06
3.96448e-05
2.37017e-06
4.92162e-05
1.98628e-06
6.02089e-05
1.48781e-06
7.33311e-05
5.28846e-07
8.88251e-05
-8.94715e-07
0.000107836
-2.97492e-06
0.000131004
0.000159755
-5.88688e-06
1.13553e-06
1.18304e-05
2.17703e-06
2.12186e-05
3.12099e-06
2.94221e-05
3.64747e-06
3.91183e-05
4.16365e-06
4.87e-05
4.33141e-06
6.00412e-05
4.49942e-06
7.3163e-05
4.36282e-06
8.89617e-05
3.99032e-06
0.000108209
3.18077e-06
0.000131813
0.000160964
1.9718e-06
1.12074e-06
1.07096e-05
2.37729e-06
1.99621e-05
3.59816e-06
2.82012e-05
4.57955e-06
3.81369e-05
5.53538e-06
4.77441e-05
6.29656e-06
5.928e-05
7.12618e-06
7.23334e-05
7.84136e-06
8.82465e-05
8.52034e-06
0.00010753
9.04004e-06
0.000131294
0.000160629
9.37516e-06
1.16711e-06
9.5425e-06
2.67675e-06
1.84524e-05
4.20507e-06
2.66729e-05
5.66052e-06
3.66815e-05
7.06074e-06
4.63439e-05
8.40714e-06
5.79336e-05
9.86319e-06
7.08774e-05
1.13719e-05
8.67378e-05
1.30592e-05
0.000105843
1.48657e-05
0.000129487
0.000158783
1.67109e-05
1.3495e-06
8.193e-06
3.14418e-06
1.66577e-05
5.04057e-06
2.47765e-05
6.99513e-06
3.47269e-05
8.88146e-06
4.44576e-05
1.08201e-05
5.59949e-05
1.29144e-05
6.8783e-05
1.52316e-05
8.44207e-05
1.78639e-05
0.00010321
2.08632e-05
0.000126488
0.000155415
2.42317e-05
1.30973e-06
6.88327e-06
3.24066e-06
1.47268e-05
5.42953e-06
2.25877e-05
7.84273e-06
3.23137e-05
1.02736e-05
4.20267e-05
1.2879e-05
5.33896e-05
1.56951e-05
6.5967e-05
1.89065e-05
8.12093e-05
2.26167e-05
9.94999e-05
2.69039e-05
0.000122201
0.000150401
3.19175e-05
1.27884e-06
5.60443e-06
3.30633e-06
1.26993e-05
5.77307e-06
2.01209e-05
8.65605e-06
2.94307e-05
1.16668e-05
3.9016e-05
1.49739e-05
5.00824e-05
1.85994e-05
6.23415e-05
2.27642e-05
7.70444e-05
2.75899e-05
9.46742e-05
3.33341e-05
0.000116457
0.000143586
4.01499e-05
1.29449e-06
4.30994e-06
3.4164e-06
1.05774e-05
6.16015e-06
1.73772e-05
9.5007e-06
2.60902e-05
1.31476e-05
3.53691e-05
1.72189e-05
4.60111e-05
2.1732e-05
5.78284e-05
2.69412e-05
7.18352e-05
3.30289e-05
8.85865e-05
4.02362e-05
0.000109249
0.000135092
4.87302e-05
1.17958e-06
3.13036e-06
3.25986e-06
8.49712e-06
6.17569e-06
1.44614e-05
9.91899e-06
2.23469e-05
1.4204e-05
3.10841e-05
1.91128e-05
4.11023e-05
2.4661e-05
5.22802e-05
3.10844e-05
6.54118e-05
3.85839e-05
8.1087e-05
4.74429e-05
0.00010039
0.000124499
5.80356e-05
1.00628e-06
2.12408e-06
2.96548e-06
6.53792e-06
5.95141e-06
1.14754e-05
1.00139e-05
1.82843e-05
1.49145e-05
2.61836e-05
2.07086e-05
3.53082e-05
2.74053e-05
4.55834e-05
3.52112e-05
5.76059e-05
4.43476e-05
7.19506e-05
5.51685e-05
8.95695e-05
0.000111583
6.80843e-05
8.05384e-07
1.31869e-06
2.58161e-06
4.76169e-06
5.48888e-06
8.56817e-06
9.71267e-06
1.40605e-05
1.51329e-05
2.07633e-05
2.17979e-05
2.86432e-05
2.97079e-05
3.76735e-05
3.90306e-05
4.82831e-05
4.9967e-05
6.10142e-05
6.28875e-05
7.6649e-05
9.61658e-05
7.83047e-05
6.60188e-07
6.58504e-07
2.13434e-06
3.28754e-06
4.75609e-06
5.94642e-06
8.88984e-06
9.92679e-06
1.4621e-05
1.50321e-05
2.20102e-05
2.1254e-05
3.10622e-05
2.86215e-05
4.18765e-05
3.74689e-05
5.46534e-05
4.82373e-05
6.97788e-05
6.15237e-05
7.8123e-05
8.78216e-05
3.64276e-07
2.94228e-07
1.49464e-06
2.15718e-06
3.65332e-06
3.78774e-06
7.41268e-06
6.16743e-06
1.31107e-05
9.33411e-06
2.08666e-05
1.34981e-05
3.06794e-05
1.88087e-05
4.26484e-05
2.54999e-05
5.69898e-05
3.38958e-05
7.4182e-05
4.43315e-05
5.71216e-05
9.51835e-05
2.79831e-07
1.43972e-08
9.46003e-07
1.49101e-06
2.65922e-06
2.07452e-06
5.9114e-06
2.91525e-06
1.10156e-05
4.22995e-06
1.82012e-05
6.31245e-06
2.76466e-05
9.36321e-06
3.96516e-05
1.3495e-05
5.45475e-05
1.89999e-05
7.25557e-05
2.63233e-05
3.56048e-05
9.40725e-05
-6.08294e-07
6.22691e-07
1.35011e-06
-4.67394e-07
4.00571e-06
-5.81088e-07
7.08872e-06
-1.67754e-07
1.10926e-05
2.26058e-07
1.66175e-05
7.87533e-07
2.41802e-05
1.80059e-06
3.43213e-05
3.35383e-06
4.75806e-05
5.74064e-06
6.45324e-05
9.37153e-06
1.51211e-05
8.50161e-05
-1.38448e-05
5.97293e-06
-2.57098e-05
3.34584e-06
-3.61507e-05
8.69633e-07
-4.51764e-05
-1.55683e-06
-5.34864e-05
-3.87688e-06
-6.20178e-05
-5.92552e-06
-7.144e-05
-7.99084e-06
-8.22114e-05
-1.04317e-05
-9.47111e-05
-1.35944e-05
-0.000109333
-1.78298e-05
-2.35817e-05
-0.000126497
-5.33782e-06
1.13108e-05
-1.15086e-05
9.51659e-06
-2.03888e-05
9.74982e-06
-2.99148e-05
7.96925e-06
-3.99966e-05
6.20491e-06
-5.05171e-05
4.59496e-06
-6.17968e-05
3.28885e-06
-7.43071e-05
2.07859e-06
-8.85786e-05
6.77121e-07
-0.000105195
-1.21335e-06
-4.00834e-06
-0.000124768
-2.27484e-06
1.35856e-05
-5.7158e-06
1.29576e-05
-1.16897e-05
1.57237e-05
-1.93462e-05
1.56257e-05
-2.86428e-05
1.55015e-05
-3.91368e-05
1.5089e-05
-5.07912e-05
1.49432e-05
-6.38574e-05
1.51448e-05
-7.87807e-05
1.56005e-05
-9.60376e-05
1.60435e-05
1.60707e-05
-0.000116117
-1.4895e-06
1.50751e-05
-4.36346e-06
1.58315e-05
-8.64837e-06
2.00086e-05
-1.43696e-05
2.1347e-05
-2.1962e-05
2.30939e-05
-3.11374e-05
2.42644e-05
-4.18326e-05
2.56384e-05
-5.40452e-05
2.73574e-05
-6.80067e-05
2.9562e-05
-8.41158e-05
3.21526e-05
3.49089e-05
-0.000102954
-1.35953e-06
1.64346e-05
-4.08056e-06
1.85525e-05
-7.38251e-06
2.33106e-05
-1.1796e-05
2.57605e-05
-1.77715e-05
2.90693e-05
-2.53394e-05
3.18323e-05
-3.45159e-05
3.48149e-05
-4.52831e-05
3.81247e-05
-5.77528e-05
4.20317e-05
-7.21579e-05
4.65577e-05
5.15405e-05
-8.87894e-05
-1.20479e-06
1.76394e-05
-3.68868e-06
2.10364e-05
-6.43769e-06
2.60596e-05
-1.00143e-05
2.93371e-05
-1.48082e-05
3.38632e-05
-2.08434e-05
3.78675e-05
-2.84031e-05
4.23745e-05
-3.74777e-05
4.71994e-05
-4.81217e-05
5.26756e-05
-6.04009e-05
5.8837e-05
6.55717e-05
-7.44321e-05
-1.00384e-06
1.86433e-05
-3.14618e-06
2.31788e-05
-5.45626e-06
2.83697e-05
-8.40366e-06
3.22845e-05
-1.22789e-05
3.77384e-05
-1.71221e-05
4.27107e-05
-2.3236e-05
4.84885e-05
-3.068e-05
5.46434e-05
-3.95097e-05
6.15053e-05
-4.9782e-05
6.91093e-05
7.73677e-05
-6.1578e-05
-9.36408e-07
1.95797e-05
-2.75334e-06
2.49957e-05
-4.66813e-06
3.02845e-05
-7.16073e-06
3.47771e-05
-1.01647e-05
4.07424e-05
-1.40491e-05
4.65951e-05
-1.88946e-05
5.3334e-05
-2.48305e-05
6.05792e-05
-3.19626e-05
6.86374e-05
-4.03745e-05
7.75212e-05
8.71745e-05
-5.01813e-05
-7.928e-07
2.03725e-05
-2.35024e-06
2.65531e-05
-3.73368e-06
3.16679e-05
-5.85289e-06
3.68963e-05
-8.20603e-06
4.30956e-05
-1.12184e-05
4.96074e-05
-1.49495e-05
5.70651e-05
-1.95488e-05
6.51786e-05
-2.51262e-05
7.42147e-05
-3.17754e-05
8.41705e-05
9.508e-05
-3.9681e-05
-5.85621e-07
2.09581e-05
-1.78534e-06
2.77529e-05
-2.89775e-06
3.27803e-05
-4.44371e-06
3.84423e-05
-6.18609e-06
4.48379e-05
-8.43921e-06
5.18606e-05
-1.11789e-05
5.98048e-05
-1.4575e-05
6.85746e-05
-1.87161e-05
7.83557e-05
-2.37193e-05
8.91737e-05
0.000101071
-2.97108e-05
-3.018e-07
2.12599e-05
-1.03357e-06
2.84846e-05
-1.75114e-06
3.34979e-05
-2.82749e-06
3.95186e-05
-3.97269e-06
4.59831e-05
-5.49787e-06
5.33857e-05
-7.34264e-06
6.16496e-05
-9.63796e-06
7.087e-05
-1.24561e-05
8.11739e-05
-1.58828e-05
9.26005e-05
0.000105241
-2.0052e-05
-9.42109e-08
2.13541e-05
-5.17873e-07
2.89083e-05
-8.29379e-07
3.38094e-05
-1.40517e-06
4.00944e-05
-1.95493e-06
4.65329e-05
-2.7418e-06
5.41726e-05
-3.6706e-06
6.25784e-05
-4.86569e-06
7.20651e-05
-6.34492e-06
8.26531e-05
-8.15887e-06
9.44144e-05
0.000107449
-1.03672e-05
1.44412e-07
2.12097e-05
1.05524e-07
2.89472e-05
1.73727e-07
3.37412e-05
1.12011e-07
4.01561e-05
1.61475e-07
4.64834e-05
1.05609e-07
5.42285e-05
7.35623e-08
6.26104e-05
-2.72057e-08
7.21658e-05
-1.74015e-07
8.27999e-05
-3.74391e-07
9.46148e-05
0.000107624
-5.49212e-07
5.18178e-07
2.06915e-05
9.12111e-07
2.85532e-05
1.4007e-06
3.32526e-05
1.86851e-06
3.96883e-05
2.50321e-06
4.58487e-05
3.18377e-06
5.35479e-05
4.04201e-06
6.17522e-05
5.01685e-06
7.1191e-05
6.19366e-06
8.16231e-05
7.60804e-06
9.32004e-05
0.000105843
9.38845e-06
7.31579e-07
1.99599e-05
1.51813e-06
2.77667e-05
2.44563e-06
3.23251e-05
3.48126e-06
3.86527e-05
4.74061e-06
4.45894e-05
6.22088e-06
5.20677e-05
8.01002e-06
5.99631e-05
1.0134e-05
6.9067e-05
1.26837e-05
7.90735e-05
1.57619e-05
9.01222e-05
0.000102062
1.95435e-05
9.98817e-07
1.89611e-05
2.20514e-06
2.65604e-05
3.59005e-06
3.09402e-05
5.21642e-06
3.70263e-05
7.13238e-06
4.26734e-05
9.44392e-06
4.97561e-05
1.22006e-05
5.72064e-05
1.55043e-05
6.57634e-05
1.9468e-05
7.51097e-05
2.42264e-05
8.53638e-05
9.62872e-05
3.0001e-05
1.31406e-06
1.7647e-05
2.99033e-06
2.48841e-05
4.87059e-06
2.906e-05
7.12807e-06
3.47688e-05
9.7429e-06
4.00586e-05
1.29242e-05
4.65748e-05
1.66928e-05
5.34378e-05
2.12167e-05
6.12394e-05
2.66288e-05
6.96975e-05
3.31112e-05
7.88814e-05
8.84524e-05
4.0946e-05
1.62216e-06
1.60249e-05
3.76798e-06
2.27383e-05
6.19349e-06
2.66344e-05
9.12881e-06
3.18335e-05
1.2511e-05
3.66764e-05
1.66206e-05
4.24652e-05
2.14804e-05
4.8578e-05
2.72929e-05
5.54269e-05
3.42022e-05
6.27883e-05
4.24218e-05
7.06618e-05
7.86847e-05
5.21895e-05
1.93597e-06
1.40889e-05
4.5646e-06
2.01096e-05
7.57491e-06
2.36241e-05
1.12367e-05
2.81717e-05
1.54679e-05
3.24452e-05
2.05691e-05
3.7364e-05
2.65792e-05
4.25679e-05
3.37345e-05
4.82716e-05
4.21835e-05
5.43393e-05
5.2178e-05
6.06673e-05
6.68663e-05
6.39964e-05
2.27306e-06
1.18159e-05
5.39418e-06
1.69885e-05
9.03446e-06
1.99839e-05
1.3468e-05
2.37381e-05
1.86126e-05
2.73007e-05
2.47433e-05
3.12333e-05
3.19663e-05
3.53448e-05
4.04803e-05
3.97576e-05
5.04885e-05
4.43312e-05
6.22563e-05
4.88995e-05
5.30632e-05
7.60594e-05
2.62535e-06
9.19051e-06
6.23523e-06
1.33786e-05
1.05279e-05
1.56912e-05
1.576e-05
1.8506e-05
2.18519e-05
2.12089e-05
2.90413e-05
2.40439e-05
3.74426e-05
2.69435e-05
4.72835e-05
2.99167e-05
5.87978e-05
3.28168e-05
7.22688e-05
3.54285e-05
3.7325e-05
8.8007e-05
2.9581e-06
6.23241e-06
7.05629e-06
9.28046e-06
1.19649e-05
1.07825e-05
1.79097e-05
1.25611e-05
2.48594e-05
1.42592e-05
3.29914e-05
1.59119e-05
4.24613e-05
1.74737e-05
5.3501e-05
1.8877e-05
6.63646e-05
1.99532e-05
8.1355e-05
2.04382e-05
1.98536e-05
9.88263e-05
3.7106e-06
2.5218e-06
8.15516e-06
4.8359e-06
1.33928e-05
5.54492e-06
1.97161e-05
6.23784e-06
2.71648e-05
6.81046e-06
3.59023e-05
7.17449e-06
4.60849e-05
7.291e-06
5.7981e-05
6.98093e-06
7.18262e-05
6.10803e-06
8.78306e-05
4.43369e-06
1.6296e-06
0.000106055
3.14449e-06
7.513e-06
1.24768e-05
1.85469e-05
2.55834e-05
3.35454e-05
4.2637e-05
5.29718e-05
6.48205e-05
7.86257e-05
9.53764e-05
-1.43933e-06
1.40606e-05
-1.26213e-05
-3.15725e-06
1.3519e-05
-1.18011e-05
-6.63715e-06
1.65601e-05
-1.30802e-05
-1.11531e-05
1.92937e-05
-1.47777e-05
-1.61338e-05
2.1928e-05
-1.69473e-05
-2.14671e-05
2.50128e-05
-1.96795e-05
-2.73241e-05
2.89504e-05
-2.30934e-05
-3.39241e-05
3.39578e-05
-2.73578e-05
-4.15318e-05
4.03473e-05
-3.27396e-05
-5.04582e-05
4.85449e-05
-3.96185e-05
5.91508e-05
-4.84399e-05
-6.11691e-05
3.68629e-06
1.03744e-05
4.94887e-06
1.22564e-05
4.13409e-06
1.73749e-05
1.7529e-06
2.16749e-05
-2.10493e-06
2.57858e-05
-7.15818e-06
3.0066e-05
-1.31233e-05
3.49155e-05
-2.00608e-05
4.08953e-05
-2.81709e-05
4.84574e-05
-3.77689e-05
5.81428e-05
7.06237e-05
-4.92418e-05
2.71899e-06
7.65536e-06
4.18403e-06
1.07914e-05
5.15803e-06
1.64009e-05
5.00796e-06
2.18249e-05
3.3006e-06
2.74932e-05
8.29313e-09
3.33584e-05
-4.63059e-06
3.95544e-05
-1.04585e-05
4.67232e-05
-1.75174e-05
5.55164e-05
-2.60277e-05
6.66531e-05
8.10131e-05
-3.64172e-05
2.27921e-06
5.37615e-06
3.46971e-06
9.60089e-06
4.75542e-06
1.51152e-05
5.54103e-06
2.10393e-05
5.33011e-06
2.77041e-05
3.83388e-06
3.48546e-05
9.65007e-07
4.24233e-05
-3.17704e-06
5.08653e-05
-8.55919e-06
6.08985e-05
-1.52537e-05
7.33476e-05
8.92095e-05
-2.34501e-05
1.74042e-06
3.63573e-06
3.19302e-06
8.1483e-06
4.68616e-06
1.3622e-05
5.86891e-06
1.98566e-05
6.49259e-06
2.70804e-05
6.2589e-06
3.50883e-05
4.94042e-06
4.37418e-05
2.47626e-06
5.33294e-05
-1.1137e-06
6.44885e-05
-5.85623e-06
7.80901e-05
9.5258e-05
-1.19047e-05
1.46997e-06
2.16576e-06
3.14268e-06
6.47559e-06
4.91537e-06
1.18493e-05
6.47336e-06
1.82986e-05
7.6711e-06
2.58827e-05
8.30121e-06
3.44582e-05
8.13666e-06
4.39063e-05
7.0651e-06
5.4401e-05
5.06731e-06
6.64863e-05
2.13021e-06
8.10272e-05
9.9223e-05
-1.83476e-06
1.32574e-06
8.40022e-07
3.12987e-06
4.67146e-06
5.05624e-06
9.92297e-06
6.93584e-06
1.6419e-05
8.6256e-06
2.41929e-05
9.94094e-06
3.31428e-05
1.06868e-05
4.31605e-05
1.07485e-05
5.43393e-05
1.0104e-05
6.71308e-05
8.77296e-06
8.23583e-05
0.00010123
6.76558e-06
1.02185e-06
-1.81829e-07
2.71817e-06
2.97514e-06
4.75036e-06
7.89078e-06
6.91667e-06
1.42527e-05
9.04562e-06
2.2064e-05
1.09603e-05
3.12282e-05
1.24965e-05
4.16243e-05
1.35432e-05
5.32925e-05
1.40861e-05
6.65879e-05
1.41811e-05
8.22633e-05
0.000101535
1.38764e-05
5.0062e-07
-6.82449e-07
1.94394e-06
1.53182e-06
4.04603e-06
5.78869e-06
6.47734e-06
1.18214e-05
9.00279e-06
1.95385e-05
1.14585e-05
2.87725e-05
1.36947e-05
3.93882e-05
1.56099e-05
5.13773e-05
1.72063e-05
6.49915e-05
1.85678e-05
8.09017e-05
0.000100254
1.98493e-05
2.10523e-07
-8.92972e-07
1.27881e-06
4.63535e-07
3.2759e-06
3.79161e-06
5.83467e-06
9.26258e-06
8.66948e-06
1.67037e-05
1.15795e-05
2.58624e-05
1.44194e-05
3.65482e-05
1.70906e-05
4.87061e-05
1.95963e-05
6.24858e-05
2.20591e-05
7.84389e-05
9.76211e-05
2.46915e-05
1.61906e-07
-1.05488e-06
8.8284e-07
-2.57398e-07
2.50361e-06
2.17083e-06
4.94813e-06
6.81807e-06
7.91297e-06
1.37389e-05
1.11476e-05
2.26278e-05
1.44718e-05
3.3224e-05
1.77957e-05
4.53823e-05
2.112e-05
5.91615e-05
2.4586e-05
7.49729e-05
9.37149e-05
2.84923e-05
1.37763e-07
-1.19264e-06
5.58973e-07
-6.78609e-07
1.73277e-06
9.97035e-07
3.8529e-06
4.69794e-06
6.72905e-06
1.08627e-05
1.00923e-05
1.92645e-05
1.37485e-05
2.95679e-05
1.7603e-05
4.15278e-05
2.16615e-05
5.5103e-05
2.6066e-05
7.05683e-05
8.86568e-05
3.11241e-05
9.88754e-08
-1.29152e-06
3.39473e-07
-9.19206e-07
1.13199e-06
2.04519e-07
2.8074e-06
3.02253e-06
5.39504e-06
8.27507e-06
8.68847e-06
1.59711e-05
1.24936e-05
2.57628e-05
1.67087e-05
3.73127e-05
2.13481e-05
5.04635e-05
2.65679e-05
6.53485e-05
8.2528e-05
3.26967e-05
4.24538e-08
-1.33397e-06
1.57061e-07
-1.03381e-06
6.42887e-07
-2.81306e-07
1.85897e-06
1.80645e-06
4.02373e-06
6.11031e-06
7.06437e-06
1.29304e-05
1.08206e-05
2.20065e-05
1.52052e-05
3.29281e-05
2.02441e-05
4.54246e-05
2.60821e-05
5.95106e-05
7.55392e-05
3.30708e-05
-1.24997e-08
-1.32147e-06
-3.5143e-08
-1.01117e-06
1.6425e-07
-4.80699e-07
9.10447e-07
1.06025e-06
2.56223e-06
4.45853e-06
5.16658e-06
1.03261e-05
8.6665e-06
1.85066e-05
1.30158e-05
2.85788e-05
1.82869e-05
4.01535e-05
2.46121e-05
5.31854e-05
6.78856e-05
3.22657e-05
-7.50809e-08
-1.24639e-06
-2.09418e-07
-8.76833e-07
-2.28078e-07
-4.6204e-07
8.52156e-08
7.46955e-07
1.18911e-06
3.35463e-06
3.28754e-06
8.22766e-06
6.3752e-06
1.5419e-05
1.053e-05
2.4424e-05
1.58182e-05
3.48654e-05
2.24447e-05
4.6559e-05
5.95792e-05
3.07511e-05
-1.36698e-07
-1.10969e-06
-3.56017e-07
-6.57514e-07
-5.22207e-07
-2.95849e-07
-5.19274e-07
7.44021e-07
4.07249e-08
2.79463e-06
1.60272e-06
6.66567e-06
4.19791e-06
1.28238e-05
7.97554e-06
2.06463e-05
1.31459e-05
2.9695e-05
1.98997e-05
3.98051e-05
5.10489e-05
2.843e-05
-1.80329e-07
-9.29362e-07
-4.68965e-07
-3.68879e-07
-7.43783e-07
-2.10313e-08
-9.28043e-07
9.28282e-07
-7.81948e-07
2.64854e-06
1.86132e-07
5.69759e-06
2.28084e-06
1.07291e-05
5.61512e-06
1.73121e-05
1.05218e-05
2.47883e-05
1.72622e-05
3.30647e-05
4.21823e-05
2.61288e-05
-2.06276e-07
-7.23087e-07
-5.35963e-07
-3.91911e-08
-8.75992e-07
3.18997e-07
-1.16781e-06
1.2201e-06
-1.23551e-06
2.71625e-06
-7.34497e-07
5.19657e-06
8.53627e-07
9.14094e-06
3.74986e-06
1.44158e-05
8.32851e-06
2.02097e-05
1.49459e-05
2.64473e-05
3.30367e-05
2.40915e-05
-2.30663e-07
-4.92424e-07
-5.80148e-07
3.10294e-07
-9.37069e-07
6.75918e-07
-1.24427e-06
1.5273e-06
-1.37036e-06
2.84234e-06
-1.06947e-06
4.89568e-06
1.18069e-07
7.9534e-06
2.64343e-06
1.18905e-05
6.85565e-06
1.59975e-05
1.32167e-05
2.00862e-05
2.3975e-05
2.22785e-05
-2.84378e-07
-2.08046e-07
-5.99831e-07
6.25747e-07
-8.87689e-07
9.63776e-07
-1.08036e-06
1.71997e-06
-1.08121e-06
2.84319e-06
-7.20394e-07
4.53486e-06
3.80659e-07
6.85235e-06
2.73467e-06
9.53644e-06
6.70617e-06
1.2026e-05
1.28516e-05
1.39408e-05
1.49338e-05
2.18928e-05
-2.41887e-07
3.38412e-08
-4.886e-07
8.72459e-07
-5.62318e-07
1.03749e-06
-4.30357e-07
1.58801e-06
-3.46978e-08
2.44753e-06
7.72097e-07
3.72807e-06
2.31067e-06
5.31378e-06
5.03147e-06
6.81564e-06
9.34377e-06
7.71369e-06
1.57076e-05
7.57698e-06
6.18683e-06
2.44545e-05
-4.54282e-07
4.88123e-07
-1.77484e-07
5.95661e-07
3.29223e-07
5.30788e-07
1.08036e-06
8.36872e-07
2.18702e-06
1.34088e-06
3.85977e-06
2.05531e-06
6.40892e-06
2.76462e-06
1.01693e-05
3.05521e-06
1.53996e-05
2.48348e-06
2.22771e-05
6.99477e-07
-2.49829e-06
3.09622e-05
1.82805e-06
-1.33993e-06
2.94121e-06
-5.17501e-07
3.95425e-06
-4.82255e-07
5.31254e-06
-5.21416e-07
7.09723e-06
-4.43806e-07
9.56481e-06
-4.12268e-07
1.296e-05
-6.30578e-07
1.73554e-05
-1.34022e-06
2.26382e-05
-2.79925e-06
2.86821e-05
-5.34448e-06
-9.33418e-06
3.5518e-05
-1.02098e-05
-2.41153e-06
-1.69198e-05
-5.09104e-06
-2.24484e-05
-7.55165e-06
-2.72568e-05
-9.9693e-06
-3.17839e-05
-1.24203e-05
-3.64326e-05
-1.50307e-05
-4.15343e-05
-1.79918e-05
-4.73661e-05
-2.1526e-05
-5.41825e-05
-2.59232e-05
-6.22504e-05
-3.15506e-05
-3.89036e-05
-7.17868e-05
-5.40566e-06
2.99413e-06
-1.1077e-05
5.80277e-07
-1.70018e-05
-1.62681e-06
-2.26608e-05
-4.31032e-06
-2.81785e-05
-6.90255e-06
-3.3808e-05
-9.40119e-06
-3.98567e-05
-1.19431e-05
-4.66629e-05
-1.47198e-05
-5.456e-05
-1.80261e-05
-6.38682e-05
-2.22424e-05
-2.77865e-05
-7.49852e-05
-2.41196e-06
5.4061e-06
-5.88445e-06
4.05276e-06
-1.07116e-05
3.20033e-06
-1.64215e-05
1.39959e-06
-2.25367e-05
-7.87372e-07
-2.89067e-05
-3.03117e-06
-3.57216e-05
-5.12819e-06
-4.32755e-05
-7.16589e-06
-5.19075e-05
-9.39407e-06
-6.19661e-05
-1.21838e-05
-1.59659e-05
-7.37867e-05
-1.40921e-06
6.8153e-06
-3.68716e-06
6.33071e-06
-7.13267e-06
6.64584e-06
-1.17583e-05
6.02518e-06
-1.74384e-05
4.89275e-06
-2.39239e-05
3.45433e-06
-3.10771e-05
2.02501e-06
-3.89576e-05
7.14665e-07
-4.77987e-05
-5.52971e-07
-5.79473e-05
-2.03523e-06
-4.1014e-06
-6.98119e-05
-1.18155e-06
7.99685e-06
-3.07112e-06
8.22028e-06
-5.6822e-06
9.25692e-06
-9.20231e-06
9.54529e-06
-1.37986e-05
9.48905e-06
-1.94713e-05
9.12698e-06
-2.61204e-05
8.67412e-06
-3.37232e-05
8.31749e-06
-4.23652e-05
8.08907e-06
-5.2233e-05
7.83252e-06
7.30703e-06
-6.36414e-05
-1.01941e-06
9.01627e-06
-2.66866e-06
9.86953e-06
-4.82145e-06
1.14097e-05
-7.67993e-06
1.24038e-05
-1.145e-05
1.32592e-05
-1.62436e-05
1.39205e-05
-2.20789e-05
1.45094e-05
-2.89434e-05
1.5182e-05
-3.68996e-05
1.60452e-05
-4.60386e-05
1.69716e-05
1.78245e-05
-5.65561e-05
-8.47572e-07
9.86384e-06
-2.27244e-06
1.12944e-05
-4.07246e-06
1.32097e-05
-6.43562e-06
1.47669e-05
-9.54843e-06
1.6372e-05
-1.35515e-05
1.79236e-05
-1.8545e-05
1.95029e-05
-2.45958e-05
2.12328e-05
-3.16813e-05
2.31308e-05
-3.99553e-05
2.52456e-05
2.74091e-05
-4.95399e-05
-7.46968e-07
1.06108e-05
-1.95202e-06
1.24994e-05
-3.45482e-06
1.47125e-05
-5.39039e-06
1.67025e-05
-7.93577e-06
1.89173e-05
-1.12232e-05
2.1211e-05
-1.53857e-05
2.36654e-05
-2.05041e-05
2.63512e-05
-2.66806e-05
2.93073e-05
-3.39543e-05
3.25192e-05
3.58318e-05
-4.2377e-05
-6.11714e-07
1.12225e-05
-1.58312e-06
1.34709e-05
-2.80595e-06
1.59354e-05
-4.32987e-06
1.82264e-05
-6.36885e-06
2.09563e-05
-9.00001e-06
2.38422e-05
-1.23759e-05
2.70413e-05
-1.66221e-05
3.05974e-05
-2.18693e-05
3.45545e-05
-2.82393e-05
3.88892e-05
4.34711e-05
-3.58785e-05
-4.13321e-07
1.16358e-05
-1.24034e-06
1.42979e-05
-2.03939e-06
1.67344e-05
-3.26281e-06
1.94498e-05
-4.76225e-06
2.24558e-05
-6.75367e-06
2.58336e-05
-9.36256e-06
2.96502e-05
-1.27329e-05
3.39678e-05
-1.70196e-05
3.88412e-05
-2.23659e-05
4.42355e-05
4.99133e-05
-2.88081e-05
-2.28125e-07
1.1864e-05
-6.43567e-07
1.47133e-05
-1.21974e-06
1.73106e-05
-1.96988e-06
2.02e-05
-2.98898e-06
2.34749e-05
-4.36013e-06
2.72048e-05
-6.20797e-06
3.1498e-05
-8.6931e-06
3.64529e-05
-1.19762e-05
4.21243e-05
-1.62171e-05
4.84764e-05
5.52411e-05
-2.15449e-05
-4.02167e-08
1.19042e-05
-2.16625e-07
1.48897e-05
-4.40111e-07
1.75341e-05
-7.88176e-07
2.0548e-05
-1.27796e-06
2.39646e-05
-2.00019e-06
2.7927e-05
-3.06031e-06
3.25581e-05
-4.60636e-06
3.7999e-05
-6.81805e-06
4.43359e-05
-9.87846e-06
5.15368e-05
5.92961e-05
-1.39334e-05
1.65e-07
1.17392e-05
2.72072e-07
1.47826e-05
3.77925e-07
1.74282e-05
4.55365e-07
2.04706e-05
4.83277e-07
2.39367e-05
4.09986e-07
2.80003e-05
1.48885e-07
3.28192e-05
-4.4013e-07
3.8588e-05
-1.53715e-06
4.5433e-05
-3.37446e-06
5.33741e-05
6.21676e-05
-6.24604e-06
4.22835e-07
1.13163e-05
8.44824e-07
1.43607e-05
1.29404e-06
1.6979e-05
1.7883e-06
1.99763e-05
2.32715e-06
2.33979e-05
2.8792e-06
2.74482e-05
3.38944e-06
3.2309e-05
3.74761e-06
3.82298e-05
3.77971e-06
4.54009e-05
3.26942e-06
5.38844e-05
6.35155e-05
1.92153e-06
5.95152e-07
1.07212e-05
1.28285e-06
1.3673e-05
2.07045e-06
1.61914e-05
2.97794e-06
1.90688e-05
4.01579e-06
2.236e-05
5.18633e-06
2.62777e-05
6.45414e-06
3.10412e-05
7.74832e-06
3.69357e-05
8.91819e-06
4.4231e-05
9.76007e-06
5.30425e-05
6.33151e-05
9.96049e-06
7.62184e-07
9.95901e-06
1.71049e-06
1.27247e-05
2.81043e-06
1.50915e-05
4.10182e-06
1.77774e-05
5.61008e-06
2.08518e-05
7.35734e-06
2.45304e-05
9.34016e-06
2.90584e-05
1.15161e-05
3.47597e-05
1.37733e-05
4.19739e-05
1.5922e-05
5.08938e-05
6.15939e-05
1.76432e-05
9.23321e-07
9.03569e-06
2.10623e-06
1.15417e-05
3.49228e-06
1.37054e-05
5.13203e-06
1.61377e-05
7.06238e-06
1.89214e-05
9.32549e-06
2.22673e-05
1.19517e-05
2.64321e-05
1.49334e-05
3.1778e-05
1.81972e-05
3.87101e-05
2.15879e-05
4.75031e-05
5.82246e-05
2.49573e-05
1.03529e-06
8.0004e-06
2.41053e-06
1.01665e-05
4.03565e-06
1.20803e-05
5.96887e-06
1.42045e-05
8.25568e-06
1.66346e-05
1.09644e-05
1.95586e-05
1.41421e-05
2.32544e-05
1.78189e-05
2.81012e-05
2.19718e-05
3.45572e-05
2.64604e-05
4.30145e-05
5.36904e-05
3.09945e-05
1.11089e-06
6.88951e-06
2.62255e-06
8.65486e-06
4.43118e-06
1.02717e-05
6.58591e-06
1.20497e-05
9.15328e-06
1.40673e-05
1.2205e-05
1.65069e-05
1.58169e-05
1.96425e-05
2.00514e-05
2.38667e-05
2.49438e-05
2.96648e-05
3.04707e-05
3.74877e-05
4.73231e-05
3.6838e-05
1.16702e-06
5.72248e-06
2.76971e-06
7.05217e-06
4.69244e-06
8.34895e-06
6.99389e-06
9.74829e-06
9.74255e-06
1.13186e-05
1.30213e-05
1.32281e-05
1.69195e-05
1.57443e-05
2.15188e-05
1.92675e-05
2.68803e-05
2.43033e-05
3.29644e-05
3.14035e-05
4.07977e-05
3.94898e-05
1.20647e-06
4.51601e-06
2.84269e-06
5.41595e-06
4.8185e-06
6.37315e-06
7.1874e-06
7.37938e-06
1.00201e-05
8.4859e-06
1.34015e-05
9.84666e-06
1.74149e-05
1.17309e-05
2.21639e-05
1.45186e-05
2.77635e-05
1.87036e-05
3.43225e-05
2.48446e-05
3.32799e-05
4.18403e-05
1.21436e-06
3.30165e-06
2.83602e-06
3.79429e-06
4.80689e-06
4.40227e-06
7.17764e-06
5.00863e-06
1.00095e-05
5.65399e-06
1.33692e-05
6.48701e-06
1.73377e-05
7.76237e-06
2.20343e-05
9.822e-06
2.7655e-05
1.30828e-05
3.44991e-05
1.80005e-05
2.46568e-05
4.31222e-05
1.17017e-06
2.13148e-06
2.7509e-06
2.21356e-06
4.69404e-06
2.45914e-06
7.01645e-06
2.68623e-06
9.75733e-06
2.91311e-06
1.29682e-05
3.27614e-06
1.67241e-05
4.00644e-06
2.11503e-05
5.39579e-06
2.64565e-05
7.7767e-06
3.28467e-05
1.16102e-05
1.73122e-05
4.01914e-05
7.91556e-07
2.48761e-06
4.46449e-06
6.6293e-06
9.0986e-06
1.19625e-05
1.53383e-05
1.93939e-05
2.43714e-05
3.06371e-05
3.86151e-05
-6.18331e-06
-8.02364e-06
1.42069e-05
-9.90478e-06
-9.21225e-06
1.29337e-05
-1.30117e-05
-1.09906e-05
1.40975e-05
-1.62992e-05
-1.291e-05
1.61975e-05
-1.97227e-05
-1.47949e-05
1.82184e-05
-2.32076e-05
-1.65447e-05
2.00296e-05
-2.70215e-05
-1.81458e-05
2.19597e-05
-3.13494e-05
-1.95293e-05
2.38572e-05
-3.63873e-05
-2.0568e-05
2.56059e-05
-4.23532e-05
-2.10433e-05
2.70091e-05
-2.05722e-05
2.77504e-05
-4.95313e-05
-5.46917e-06
-2.55448e-06
-9.97545e-06
-4.70596e-06
-1.4023e-05
-6.94304e-06
-1.77857e-05
-9.1473e-06
-2.14149e-05
-1.11657e-05
-2.50807e-05
-1.28789e-05
-2.90226e-05
-1.42039e-05
-3.3497e-05
-1.50549e-05
-3.87738e-05
-1.52912e-05
-4.51545e-05
-1.46626e-05
-1.27855e-05
-5.29413e-05
-2.94676e-06
3.92286e-07
-6.30566e-06
-1.34706e-06
-1.00577e-05
-3.19099e-06
-1.40644e-05
-5.14062e-06
-1.82282e-05
-7.00183e-06
-2.25623e-05
-8.54488e-06
-2.71933e-05
-9.57285e-06
-3.23342e-05
-9.91396e-06
-3.82425e-05
-9.38288e-06
-4.51937e-05
-7.71135e-06
-4.44282e-06
-5.35364e-05
-1.58743e-06
1.97971e-06
-3.95245e-06
1.01796e-06
-7.07756e-06
-6.58825e-08
-1.0743e-05
-1.47517e-06
-1.48653e-05
-2.87955e-06
-1.94203e-05
-3.9899e-06
-2.44449e-05
-4.54823e-06
-3.00589e-05
-4.29995e-06
-3.64277e-05
-3.01409e-06
-4.37571e-05
-3.81955e-07
4.11875e-06
-5.23186e-05
-8.53973e-07
2.83368e-06
-2.41446e-06
2.57844e-06
-4.80746e-06
2.32712e-06
-7.97661e-06
1.69399e-06
-1.18554e-05
9.99264e-07
-1.63236e-05
4.78314e-07
-2.13614e-05
4.89538e-07
-2.70293e-05
1.36796e-06
-3.35138e-05
3.47042e-06
-4.10891e-05
7.19331e-06
1.3071e-05
-5.00413e-05
-7.72614e-07
3.6063e-06
-1.97221e-06
3.77804e-06
-3.69616e-06
4.05106e-06
-6.14136e-06
4.13919e-06
-9.37484e-06
4.23275e-06
-1.34356e-05
4.53911e-06
-1.82955e-05
5.34943e-06
-2.39575e-05
7.02989e-06
-3.04817e-05
9.99463e-06
-3.80154e-05
1.47271e-05
2.18877e-05
-4.68322e-05
-7.43183e-07
4.34948e-06
-1.87546e-06
4.91032e-06
-3.38618e-06
5.56178e-06
-5.45701e-06
6.21002e-06
-8.22528e-06
7.00102e-06
-1.17801e-05
8.09398e-06
-1.61796e-05
9.74891e-06
-2.14595e-05
1.23098e-05
-2.76765e-05
1.62116e-05
-3.49319e-05
2.19825e-05
3.0295e-05
-4.33392e-05
-7.45049e-07
5.09453e-06
-1.7854e-06
5.95067e-06
-3.17327e-06
6.94965e-06
-5.02685e-06
8.0636e-06
-7.46954e-06
9.4437e-06
-1.06239e-05
1.12484e-05
-1.4586e-05
1.3711e-05
-1.94362e-05
1.71599e-05
-2.52542e-05
2.20296e-05
-3.21586e-05
2.88869e-05
3.84812e-05
-4.03448e-05
-7.13728e-07
5.80826e-06
-1.70308e-06
6.94002e-06
-2.99074e-06
8.23731e-06
-4.68202e-06
9.75488e-06
-6.88939e-06
1.16511e-05
-9.7292e-06
1.40882e-05
-1.33161e-05
1.72979e-05
-1.77548e-05
2.15986e-05
-2.31545e-05
2.74293e-05
-2.96517e-05
3.5384e-05
4.62605e-05
-3.74309e-05
-6.22606e-07
6.43086e-06
-1.52209e-06
7.8395e-06
-2.70565e-06
9.42088e-06
-4.25688e-06
1.13061e-05
-6.27021e-06
1.36644e-05
-8.85652e-06
1.66745e-05
-1.21311e-05
2.05725e-05
-1.62114e-05
2.56789e-05
-2.12282e-05
3.24461e-05
-2.73188e-05
4.14747e-05
5.35574e-05
-3.46157e-05
-5.37042e-07
6.96791e-06
-1.35262e-06
8.65507e-06
-2.43133e-06
1.04996e-05
-3.84533e-06
1.27201e-05
-5.68228e-06
1.55014e-05
-8.04443e-06
1.90367e-05
-1.10424e-05
2.35705e-05
-1.4796e-05
2.94325e-05
-1.94344e-05
3.70844e-05
-2.51028e-05
4.71431e-05
6.04449e-05
-3.19903e-05
-5.28201e-07
7.49611e-06
-1.28866e-06
9.41554e-06
-2.27705e-06
1.1488e-05
-3.56481e-06
1.40079e-05
-5.23577e-06
1.71723e-05
-7.38245e-06
2.11833e-05
-1.01095e-05
2.62976e-05
-1.35374e-05
3.28603e-05
-1.77934e-05
4.13405e-05
-2.30213e-05
5.2371e-05
6.67661e-05
-2.93425e-05
-4.84576e-07
7.98068e-06