/*--------------------------------*- C++ -*----------------------------------*\
| =========                 |                                                 |
| \\      /  F ield         | OpenFOAM: The Open Source CFD Toolbox           |
|  \\    /   O peration     | Version:  3.0.1                                 |
|   \\  /    A nd           | Web:      www.OpenFOAM.org                      |
|    \\/     M anipulation  |                                                 |
\*---------------------------------------------------------------------------*/
FoamFile
{
    version     2.0;
    format      ascii;
    class       volScalarField;
    location    "0";
    object      yPlus;
}
// * * * * * * * * * * * * * * * * * * * * * * * * * * * * * * * * * * * * * //

dimensions      [0 0 0 0 0 0 0];

internalField   uniform 0;

boundaryField
{
    FrontAndBack
    {
        type            empty;
    }
    patch1
    {
        type            calculated;
        value           nonuniform 0();
    }
    patch2
    {
        type            calculated;
        value           nonuniform 0();
    }
    patch3
    {
        type            calculated;
        value           nonuniform List<scalar> 
98
(
0.983963
0.976798
0.972003
0.983974
1.00186
1.01828
1.03284
1.04164
1.05155
1.05797
1.06203
1.07202
1.08631
1.0979
1.10838
1.11983
1.13176
1.14373
1.15538
1.16634
1.17637
1.18624
1.19662
1.20847
1.21547
1.21797
1.22318
1.22818
1.22991
1.23102
1.22884
1.22451
1.22018
1.20945
1.19339
1.18064
1.16489
1.14038
1.11442
1.08458
1.04758
1.00556
0.957738
0.903582
0.843664
0.774041
0.696257
0.768279
1.01125
0.988208
0.985275
0.976334
0.964412
0.947057
0.928419
0.906769
0.888662
0.880565
0.883218
0.891459
0.904086
0.927576
0.953626
0.977592
1.00913
1.03781
1.0667
1.09493
1.12067
1.146
1.16598
1.186
1.19916
1.21081
1.22255
1.2249
1.22432
1.22065
1.21184
1.19784
1.17868
1.15339
1.12288
1.08805
1.04732
0.998764
0.942339
0.885655
0.822568
0.750003
0.672984
0.591402
0.50114
0.407088
0.309409
0.219222
0.619735
0.951426
)
;
    }
    Shaft
    {
        type            calculated;
        value           nonuniform 0();
    }
    Inlet
    {
        type            calculated;
        value           uniform 0;
    }
    Lat-Wall
    {
        type            calculated;
        value           nonuniform List<scalar> 
13
(
1088.83
987.85
1102.69
966.697
844.652
1025.01
530.351
875.242
679.586
941.25
825.422
693.271
732.894
)
;
    }
    Outlet
    {
        type            calculated;
        value           nonuniform 0();
    }
    AMI-St
    {
        type            cyclicAMI;
        value           uniform 0;
    }
    AMI-Rt
    {
        type            cyclicAMI;
        value           uniform 0;
    }
    procBoundary0to1
    {
        type            processor;
        value           uniform 0;
    }
    procBoundary0to2
    {
        type            processor;
        value           uniform 0;
    }
}


// ************************************************************************* //
