/*--------------------------------*- C++ -*----------------------------------*\
| =========                 |                                                 |
| \\      /  F ield         | OpenFOAM: The Open Source CFD Toolbox           |
|  \\    /   O peration     | Version:  3.0.1                                 |
|   \\  /    A nd           | Web:      www.OpenFOAM.org                      |
|    \\/     M anipulation  |                                                 |
\*---------------------------------------------------------------------------*/
FoamFile
{
    version     2.0;
    format      ascii;
    class       volScalarField;
    location    "0.648335";
    object      epsilon;
}
// * * * * * * * * * * * * * * * * * * * * * * * * * * * * * * * * * * * * * //

dimensions      [0 2 -3 0 0 0 0];

internalField   nonuniform List<scalar> 
21246
(
103.042
33.2818
19.1152
11.6461
6.62095
3.40092
1.60765
0.724447
0.321718
0.144308
0.0690506
106.059
35.5317
18.7945
10.7113
5.79164
2.88919
1.34468
0.59958
0.262253
0.11547
0.0544324
94.1005
35.3386
19.1819
11.1988
6.16427
3.0913
1.42844
0.626799
0.267856
0.113898
0.050721
79.2039
32.3926
18.6313
11.5148
6.67352
3.47623
1.62927
0.706999
0.293699
0.120609
0.0518781
67.6116
28.6744
17.4472
11.3385
6.88697
3.74006
1.80015
0.784758
0.321253
0.128526
0.0536852
59.1414
25.3395
16.1192
10.8991
6.86481
3.85758
1.90703
0.843083
0.345524
0.137218
0.0568657
52.2262
22.4736
14.8338
10.3436
6.69497
3.86397
1.95508
0.87908
0.364068
0.145381
0.0601023
47.6994
20.3436
13.7
9.74165
6.43754
3.79392
1.95705
0.89447
0.375426
0.151642
0.0641747
44.2045
18.7512
12.7279
9.16811
6.15505
3.68546
1.9314
0.896179
0.381828
0.156731
0.0675061
41.3836
17.5318
11.943
8.67841
5.89533
3.57407
1.89752
0.892463
0.385818
0.160931
0.0700048
38.9845
16.5588
11.3036
8.26898
5.66976
3.47264
1.86411
0.887213
0.388504
0.164244
0.0729325
37.2339
15.7619
10.7633
7.91611
5.47023
3.38092
1.83322
0.882195
0.390942
0.16736
0.0753495
36.0748
15.1367
10.3221
7.62708
5.30813
3.30905
1.81152
0.880851
0.394829
0.171071
0.0777272
35.1568
14.6889
9.99333
7.41735
5.20002
3.2704
1.8076
0.887664
0.401894
0.175796
0.0809626
34.8067
14.384
9.74917
7.26941
5.13776
3.26382
1.82309
0.904413
0.413271
0.18201
0.0839958
34.9836
14.2207
9.59335
7.19138
5.1321
3.2997
1.86591
0.935621
0.431007
0.190549
0.0877382
35.5004
14.2613
9.5503
7.20428
5.2047
3.39718
1.94943
0.988763
0.458545
0.202606
0.0926404
36.8127
14.5388
9.64957
7.32336
5.37346
3.57433
2.08824
1.0735
0.500673
0.220125
0.0990995
39.1063
15.114
9.91215
7.5514
5.63842
3.85361
2.31891
1.21765
0.571869
0.249152
0.109559
42.7613
16.1117
10.4088
7.93413
6.03487
4.25717
2.65986
1.4448
0.693208
0.303472
0.130592
48.569
17.7974
11.2639
8.5537
6.6166
4.8235
3.14822
1.79333
0.897521
0.404861
0.174158
58.6237
20.4263
12.7764
9.59752
7.48447
5.6067
3.82635
2.3118
1.23571
0.594482
0.266871
74.8928
27.6585
16.1372
11.5585
8.87067
6.72647
4.7753
3.07692
1.78874
0.947198
0.465952
129.067
34.5116
20.7836
14.7405
11.1716
8.50462
6.2411
4.29874
2.74801
1.6331
0.912306
76.1838
41.831
28.2027
18.9643
11.6039
5.95198
2.82566
1.24383
0.5264
0.227109
0.106241
53.5677
42.7877
36.598
28.3355
20.1237
12.7249
7.0314
2.945
1.09569
0.420899
0.184576
74.0241
47.3051
47.0752
39.1771
29.7901
20.8941
13.2077
7.0845
3.019
0.934806
0.35442
93.9987
50.6384
50.8643
52.064
42.5726
31.1661
21.0315
12.7389
6.61885
2.69473
0.790123
109.564
55.8654
50.1911
57.2528
58.3867
46.5575
32.4526
20.5641
11.7232
5.71577
2.21589
120.527
58.2935
48.126
52.7259
62.8646
62.666
48.5307
32.1667
19.0941
10.1322
4.6017
128.17
58.5467
45.214
46.5664
55.34
66.7474
63.4257
46.8658
29.3984
16.3533
8.0855
133.465
57.9254
42.6009
41.0434
46.2917
58.3532
68.4412
59.8624
41.3551
24.3679
12.7546
138.178
57.1667
40.7806
36.8858
38.7316
47.6648
62.171
66.1736
51.8063
32.9651
18.191
143.034
56.7011
39.9133
34.1128
33.2954
38.9063
52.444
64.9874
58.1771
40.2463
23.6004
148.796
57.0108
40.0521
32.5653
29.8355
32.8192
43.5462
59.2714
60.5463
45.0493
27.9381
155.903
58.8858
41.1459
32.1301
28.0408
29.2225
37.1852
53.1982
60.5396
47.3118
30.6412
165.69
62.1683
43.1777
32.6859
27.5078
27.5095
33.0431
46.3744
59.2089
47.5008
31.2218
178.394
67.1041
46.1867
34.0254
27.7268
26.8695
30.7795
39.2405
51.287
47.3294
29.9735
193.987
73.9021
50.4647
36.1201
28.1768
25.973
28.0547
33.2099
40.1829
43.8408
29.1975
214.388
83.1315
56.4609
39.2489
29.0456
25.0871
25.294
27.9927
31.9903
34.7643
28.9137
241.585
95.6464
64.9667
44.0362
30.8664
24.8458
23.2865
24.0071
25.7584
27.3382
26.7811
279.16
112.746
77.5231
51.9094
34.8092
26.3147
23.2242
22.778
23.4927
24.362
24.3986
332.534
137.128
98.691
67.7295
44.9775
32.7211
27.7778
26.5919
26.7779
26.4545
25.0346
377.903
162.459
128.146
98.4004
71.6671
53.9672
45.55
42.93
40.8774
37.8087
36.1123
362.997
162.041
133.928
109.255
85.8668
68.7729
58.9844
50.8218
39.3136
31.5723
24.0007
363.824
158.504
132.712
112.667
91.0396
73.1303
56.4267
40.9837
28.9862
20.1484
13.3277
400.263
159.636
126.871
99.7614
75.1664
53.6405
37.2341
25.333
16.9383
11.0503
6.95084
347.082
150.27
88.9285
56.8634
37.8377
25.613
17.3848
11.6697
7.62153
4.77166
2.83738
545.576
191.917
56.3159
10.8497
2.13432
0.481525
0.137908
0.0559191
0.0316817
0.0224665
0.0180775
568.946
153.424
36.9977
9.04586
2.2497
0.57925
0.167528
0.0627481
0.03263
0.0218689
0.0170536
589.946
159.477
32.45
9.32339
2.58926
0.735988
0.21618
0.0766185
0.0359368
0.0217477
0.0156089
571.965
147.791
28.9041
9.16675
2.63402
0.815139
0.249612
0.0887271
0.0396987
0.0226
0.0156018
541.528
127.926
25.8885
8.57088
2.46641
0.824302
0.264743
0.097447
0.0435254
0.024119
0.0161939
514.78
110.044
23.3352
7.76616
2.25011
0.790726
0.265032
0.10189
0.0463766
0.0255427
0.0169018
489.509
96.9404
21.2393
6.94963
2.04765
0.738317
0.256261
0.102818
0.0480918
0.0266757
0.0174926
462.18
86.8533
19.4054
6.22465
1.86663
0.681253
0.243388
0.101468
0.0488727
0.0275359
0.0182133
439.567
79.0931
17.8377
5.63126
1.71428
0.629133
0.230224
0.0991998
0.0491501
0.0282328
0.0188522
425.465
73.8246
16.6741
5.19277
1.59903
0.587903
0.219302
0.0971085
0.0493205
0.0288547
0.0193733
415.361
70.5031
15.8341
4.87572
1.51562
0.557603
0.211345
0.0957511
0.0496633
0.0295267
0.0199537
405.033
68.2095
15.158
4.63258
1.4543
0.536102
0.206265
0.0953805
0.050387
0.0303701
0.0205597
397.528
67.6744
14.7102
4.47323
1.41862
0.524606
0.204678
0.0963902
0.0517322
0.0315451
0.0213435
391.647
70.5587
15.2847
4.55655
1.44922
0.53357
0.209792
0.0997758
0.054061
0.0332552
0.0224892
387.877
73.794
16.374
4.83677
1.55426
0.570033
0.226146
0.107578
0.0585557
0.0360886
0.0243191
387.304
78.0346
18.2032
5.41094
1.76967
0.648075
0.259032
0.121999
0.0661149
0.0405626
0.0271511
389.809
84.9022
21.3872
6.5224
2.18831
0.804294
0.322486
0.148819
0.0791445
0.0478083
0.0316239
397.644
93.5675
25.7939
8.30147
2.91745
1.09783
0.444563
0.200805
0.10331
0.0604415
0.0390895
412.378
105.006
31.8581
11.0711
4.17378
1.65566
0.692463
0.311293
0.15447
0.0859435
0.0531898
436.901
120.853
40.5079
15.427
6.36646
2.74028
1.2226
0.567754
0.279144
0.148225
0.0860911
476.461
143.831
53.5889
22.638
10.3148
4.89798
2.39238
1.19476
0.612606
0.325744
0.182062
544.062
175.56
73.0793
34.3914
17.4315
9.20316
4.97954
2.73583
1.52247
0.859503
0.494761
661.614
218.165
100.171
52.6553
29.7777
17.4745
10.4783
6.36248
3.89496
2.39938
1.48791
946.573
234.565
134.729
84.6397
54.4007
35.3007
23.1759
15.3434
10.2078
6.80671
4.54248
789.76
294.008
59.1837
12.9157
2.54404
0.557209
0.155284
0.0646124
0.0383296
0.0280464
0.0228441
1195.26
675.771
74.0084
18.005
3.62318
0.825346
0.217473
0.0864353
0.051443
0.0386363
0.0322272
1314.93
776.258
90.4002
22.2427
4.52275
1.14217
0.304416
0.116528
0.0668606
0.0492277
0.0404848
1220.78
657.826
94.6345
23.0199
4.87118
1.38449
0.391811
0.155485
0.0937561
0.0755314
0.0705452
1062.03
522.239
88.5573
21.1653
4.81609
1.50154
0.458822
0.195199
0.123815
0.103595
0.0981162
912.602
422.337
78.9377
18.5736
4.56274
1.51364
0.500781
0.231793
0.15742
0.14063
0.145593
785.732
351.385
69.4217
16.1871
4.24274
1.46655
0.524036
0.264377
0.192811
0.182601
0.199175
679.117
297.839
60.7561
14.1685
3.91721
1.39692
0.536917
0.293882
0.229144
0.229653
0.2667
595.606
256.829
53.3826
12.544
3.62678
1.32949
0.54654
0.321827
0.266158
0.282538
0.358851
531.851
225.003
47.3593
11.2697
3.39255
1.2764
0.557495
0.349221
0.302434
0.334891
0.447194
483.504
202.353
42.8118
10.326
3.23395
1.24289
0.573312
0.376458
0.336309
0.380658
0.518695
444.244
184.496
39.8104
9.8602
3.17721
1.24298
0.602121
0.406226
0.369107
0.419874
0.575511
413.373
170.422
38.6461
9.96275
3.29227
1.3
0.652931
0.4428
0.403519
0.456093
0.620498
388.954
160.447
39.5346
10.7531
3.62783
1.43905
0.733742
0.490494
0.440641
0.488954
0.649478
369.896
153.415
41.4925
12.125
4.22296
1.6885
0.858143
0.556985
0.483492
0.51909
0.663401
355.757
149.342
44.665
14.2245
5.19882
2.12019
1.06105
0.659422
0.540016
0.550417
0.665179
345.918
148.706
49.3995
17.3192
6.7617
2.86657
1.41737
0.836663
0.630134
0.593354
0.664605
340.448
152.165
56.122
21.7483
9.20232
4.14854
2.07454
1.17631
0.803932
0.676259
0.680493
339.247
160.66
65.6337
28.1114
12.9923
6.34393
3.3162
1.87254
1.18713
0.877612
0.764268
342.561
174.155
79.1078
37.4873
19.0091
10.1546
5.69545
3.34336
2.08359
1.41184
1.06351
350.278
190.902
97.0218
51.2559
28.7517
16.9219
10.3188
6.47012
4.18494
2.81502
1.98915
360.114
213.89
121.952
72.1874
45.1366
29.3341
19.4493
13.0924
8.97033
6.27399
4.49203
357.142
207.769
128.948
86.3225
60.6869
44.0933
32.6505
24.3374
18.2474
13.7644
10.4434
1231.73
526.887
289.993
179.658
118.87
80.5263
54.9648
37.6081
25.7464
17.6161
12.0435
611.001
259.114
55.949
14.3013
3.57391
1.06046
0.467773
0.309945
0.261754
0.250051
0.25645
796.589
422.74
112.011
23.5599
5.60039
1.52711
0.581918
0.349413
0.28771
0.277606
0.291113
805.346
419.499
144.76
38.6424
8.49131
2.10067
0.73416
0.399457
0.316035
0.30553
0.328444
689.649
370.409
152.61
47.1837
11.6868
2.6652
0.894384
0.453443
0.343975
0.329972
0.357393
545.756
326.693
150.744
51.9501
14.3972
3.40899
1.04972
0.506197
0.369993
0.350207
0.377895
417.43
290.949
147.094
56.3479
17.4149
4.46045
1.27911
0.557618
0.393016
0.366289
0.392711
310.285
261.365
143.435
60.971
21.0269
5.9264
1.66803
0.643892
0.415102
0.378724
0.404838
224.558
236.316
139.868
65.4253
25.053
7.85363
2.27798
0.793758
0.450066
0.389489
0.412882
160.575
214.456
137.327
70.0022
29.5493
10.3362
3.21124
1.0606
0.514483
0.404979
0.418274
114.478
194.969
136.25
75.227
34.777
13.558
4.62424
1.53606
0.64493
0.435971
0.424987
81.9856
178.288
136.407
80.9311
40.5903
17.5032
6.61916
2.32705
0.900843
0.505643
0.440131
62.9063
166.556
138.203
87.0472
46.7217
21.9914
9.19745
3.52293
1.36012
0.655084
0.480283
59.0657
159.858
142.34
94.3532
53.513
27.1053
12.4209
5.22817
2.12548
0.951047
0.578171
66.1108
153.078
148.104
103.966
61.831
33.2263
16.4546
7.57797
3.32629
1.49204
0.792751
74.7195
140.884
152.047
115.976
72.4739
40.8183
21.4988
10.7022
5.09552
2.40098
1.21514
77.5821
120.568
147.144
127.661
85.9955
50.8053
28.1183
14.909
7.64094
3.84598
1.97791
74.1717
96.6978
129.89
132.261
100.396
63.6709
37.0952
20.7503
11.319
6.08044
3.27483
67.8318
74.7603
105.127
124.225
109.965
77.6961
48.6173
28.7952
16.6272
9.47938
5.39041
60.7013
56.7077
79.4618
104.395
108.433
88.3711
61.4051
39.2702
24.1522
14.5914
8.75396
53.9699
42.5658
56.8452
79.1061
94.7671
90.8247
72.4561
51.4812
34.2837
22.0716
13.9685
50.2878
33.2742
40.4815
57.0282
75.8839
84.6754
78.5851
63.3644
46.4938
32.1732
21.4923
66.7631
36.8858
38.0387
47.4672
61.3764
73.9105
76.5636
69.5138
56.6511
42.6106
30.093
144.483
69.0317
65.6505
65.2104
64.8585
63.8017
60.5091
55.0629
47.8728
39.6166
30.1342
249.921
213.228
189.016
176.602
163.32
145.4
122.431
96.627
71.529
50.9331
35.3011
539.128
146.634
41.5817
9.90093
2.57998
0.86326
0.42046
0.287764
0.241044
0.22401
0.220369
482.625
118.861
32.6753
10.2324
2.97707
1.00186
0.458763
0.294198
0.235575
0.211867
0.202391
478.589
136.607
33.6023
12.1762
4.08451
1.41405
0.582683
0.330213
0.244947
0.211207
0.196462
430.106
130.426
31.4263
12.2884
4.54543
1.72973
0.736535
0.394399
0.272035
0.223099
0.201496
375.601
110.308
28.5881
11.7362
4.47747
1.77036
0.781038
0.431225
0.299287
0.243361
0.217047
330.05
91.1234
25.6929
10.7906
4.20644
1.73524
0.796634
0.452427
0.318764
0.261086
0.233809
293.81
76.2566
23.1478
9.83398
3.88924
1.66023
0.790879
0.464562
0.335789
0.280451
0.255315
264.066
65.013
20.9762
9.00023
3.60538
1.58645
0.777772
0.471261
0.350011
0.2992
0.278303
241.573
56.6309
19.2464
8.32998
3.39759
1.53167
0.767794
0.476946
0.36209
0.316048
0.300432
225.247
50.4937
17.9168
7.84898
3.27866
1.5032
0.767874
0.485295
0.373697
0.330819
0.319375
214.014
46.2291
17.0027
7.55831
3.24411
1.50971
0.782638
0.499231
0.386776
0.344349
0.333519
206.235
43.1026
16.3568
7.42257
3.28271
1.55253
0.814798
0.521282
0.403537
0.359103
0.347753
202.102
40.9384
15.9767
7.43846
3.40031
1.63807
0.868976
0.554623
0.426318
0.377181
0.364829
200.037
40.8386
16.0832
7.67971
3.64313
1.79268
0.95953
0.606464
0.458863
0.400864
0.385573
200.008
41.7381
16.5919
8.12658
4.03315
2.04642
1.11143
0.693111
0.51081
0.435771
0.412842
202.401
43.7417
17.5767
8.81944
4.59298
2.42646
1.3484
0.832673
0.593988
0.489105
0.450706
207.663
47.1147
19.197
9.84493
5.37329
2.97647
1.70882
1.05609
0.730726
0.575824
0.509845
216.924
51.933
21.6008
11.3141
6.44785
3.75833
2.24993
1.41332
0.961262
0.726483
0.614396
231.912
58.6351
25.0712
13.4283
7.95229
4.87549
3.0628
1.98666
1.35714
1.00083
0.814007
255.771
68.3018
30.1683
16.5633
10.1461
6.51713
4.30393
2.91512
2.04408
1.51091
1.20942
295.044
82.9459
37.9642
21.4242
13.535
9.05741
6.2696
4.45195
3.24917
2.46468
1.99166
364.715
106.855
50.6576
29.4695
19.1763
13.2934
9.58446
7.11016
5.4155
4.26121
3.53057
505.95
156.58
76.2807
45.3582
30.1794
21.4858
15.983
12.2743
9.69524
7.90998
6.7728
931.341
269.226
140.058
90.0471
64.7079
49.6077
39.5309
32.2432
27.0258
23.2517
20.4319
6.68986
24.5902
37.7192
45.4108
49.4249
50.0208
48.2978
41.1525
41.4724
10.5503
16.7603
18.2943
17.8498
17.4285
17.094
16.5271
13.7797
12.6337
10.5322
13.8884
12.2711
9.87221
8.89616
8.74677
8.48595
6.94404
6.37074
9.74036
10.4444
7.85352
5.85022
4.95255
4.56156
4.21614
3.28404
3.0515
3.78804
3.31128
3.91392
12.9518
26.3021
35.9542
40.9761
42.7097
42.552
2.6417
2.49378
5.0821
9.57547
13.2968
14.41
13.7792
12.9415
12.7722
3.10584
2.62527
4.79779
8.01872
9.59226
8.84983
7.21334
6.29486
6.26068
3.58533
2.71516
4.48241
6.49912
6.65843
5.34097
4.02585
3.32962
3.1181
0.00900688
0.00829713
0.00834936
0.00681379
0.4543
0.00755259
0.137507
0.00809303
0.00751938
0.00690146
0.453106
0.00812545
0.010073
0.00509148
0.0145986
0.00728469
0.00602494
0.00694915
0.00724833
0.00711345
0.00664476
0.0630663
0.00851772
0.121463
0.00792231
0.00504941
0.00972234
0.128617
1.92717
0.38502
0.00714756
0.00641276
0.00668876
0.00807078
0.00677661
0.00826703
0.11093
0.0079045
0.00749185
0.00758113
0.159278
0.00810139
0.0418966
0.0084923
0.738149
0.386938
0.016441
0.522234
0.00689404
0.00731105
0.387258
0.00760448
0.156579
0.0409891
0.00730265
0.00667343
0.0615163
0.00762764
1.78692
0.0641441
0.0808387
0.144947
0.516872
0.0384355
0.206571
0.00715123
0.387073
0.00723223
0.00829898
0.00688843
0.00514923
0.00702806
0.0160916
0.00733485
0.0236748
0.00702304
0.0849594
0.00827791
0.057197
1.12312
0.288893
0.0287148
0.00793641
0.00838061
0.00697815
0.0163635
2.48717
0.121214
0.0200336
0.113534
0.00809231
0.00766955
0.161983
0.00720387
1.10291
0.732823
0.0239578
0.00617385
0.0253784
0.00712108
0.00776951
0.399012
0.00676606
0.00616188
0.0152944
0.00811627
0.00466387
0.00845256
0.0142148
0.00660451
0.00798184
0.00815157
0.00715564
0.00715992
0.0262637
0.00769027
0.00752509
0.00731435
0.00795203
0.00671995
0.00752346
0.0072664
0.00715123
0.00502144
0.322002
0.00852532
0.25149
0.00480945
0.00610505
0.00878308
0.00780366
0.0622786
0.469522
0.00701457
0.00833999
0.00821728
0.0659972
0.016544
0.403184
0.00729853
0.0485676
0.00661801
0.212238
0.00868328
0.00749144
0.0247849
0.0167692
0.00722939
0.00701626
0.00710817
0.00719126
0.00768184
0.0276861
0.00723406
0.00691806
0.0156912
0.0215322
0.0423052
0.00546786
0.00746493
0.00549064
0.0340428
0.00702685
0.00771081
0.400896
0.0259187
0.0206281
0.00802318
0.00672878
0.185272
0.00563893
0.00552711
0.00686099
0.00645925
0.00640413
0.00641244
0.00580938
0.0289822
0.762946
0.00695394
0.00723269
0.0669011
0.00849683
0.112213
0.00795563
0.0141789
0.00714826
0.0072684
0.00825482
0.0828663
0.0134783
0.00525344
0.00719088
0.138106
0.00832595
0.00759052
0.00740283
0.0263123
0.00951094
0.00856733
0.0269118
0.00729311
0.0131655
0.00776236
0.00838571
0.124904
0.007204
0.00606338
0.00736515
0.00740544
0.134567
0.00759265
0.00827379
0.00669888
0.00792392
0.0742386
0.00797631
0.0223726
0.00718749
0.0108632
0.0101478
0.00724234
0.0223104
0.0258586
0.00482142
0.007645
0.0754887
0.0238761
0.0116203
0.163619
0.0411916
0.00713992
0.00717709
0.00726169
0.0277565
1.04006
0.372438
0.00845038
0.00814625
0.00810824
0.0223068
0.0379146
0.00613097
0.106867
0.00746648
0.0407637
0.00801013
0.00813468
0.514093
0.334354
0.00807375
0.13749
0.0102993
0.0072778
0.00601617
0.00743998
0.00674629
0.00785441
0.0192307
0.00713354
0.00837025
0.0100089
0.00737986
0.00819825
0.00797499
0.0154405
0.00660972
0.00760084
0.0176483
0.00694601
0.215171
0.007291
0.00727368
0.015753
0.00755863
0.00735503
0.0053345
0.00776645
0.0069113
0.0188322
0.00706694
0.00827357
0.294121
0.343931
0.00602854
0.0075798
1.18336
0.00823774
0.00681058
0.0488806
0.00833841
0.11955
0.00770936
0.00869239
0.00856384
0.00739155
0.00678272
0.00816546
0.00677682
0.0053408
0.00778879
0.00936187
0.00704742
0.392319
0.0067854
0.00658266
0.00827974
0.0623417
0.0649277
0.00741693
0.0908851
0.00816077
0.00643184
0.00650827
0.0863565
0.00655959
0.0070474
0.0150332
0.00670612
0.00725097
0.00713412
0.192919
0.00745897
0.00538
0.0248175
0.00705957
0.00779023
0.00593016
0.00709446
0.16233
0.00733387
0.527795
0.0822173
0.00846207
0.011239
0.808135
0.0187901
0.00823909
0.00785269
0.00598081
0.0308919
0.130714
0.00727081
0.0263448
0.19087
0.0642607
0.0375884
0.00753237
0.0925603
0.296047
0.116272
0.00594483
0.00700904
0.00684758
0.0132601
0.00860266
0.0108271
0.00695815
0.00849686
0.210117
0.00986447
0.00526808
0.00800263
0.00799183
0.00726799
0.0194605
0.00518588
0.0133328
0.142173
0.00686693
0.00774254
0.108691
0.678959
0.0047426
0.0120815
0.00830955
0.00905551
0.00673721
0.0075158
0.00712633
0.259188
0.00754258
0.0242517
0.00767011
0.00521606
0.350497
0.00888004
0.00478707
0.0348708
0.0227428
0.00771823
0.0560005
0.00467961
0.00755912
0.375147
0.226196
0.00788263
0.00721596
0.00835302
0.0285795
0.0189315
0.00764513
0.00850455
0.0540073
0.00747566
0.365501
0.0535727
0.030382
0.00728972
0.189268
0.00762048
0.00720161
0.0108003
0.0102484
0.0304001
0.00638052
0.0137289
0.00748971
0.0048501
0.0432045
0.276813
0.00619706
0.160157
0.0121739
0.00627802
0.00659706
0.00728438
0.0282468
0.00832839
0.274822
0.00790381
0.024019
0.00508695
0.00662665
0.00832012
0.0130794
0.183908
0.401238
0.00507188
0.00859982
0.00596313
1.89465
0.0116978
0.00911189
0.00703808
0.0205917
0.0776598
0.0412239
0.00741155
0.0353062
0.00776228
0.00833604
0.00793735
0.0312713
0.0202938
0.150615
0.00560347
0.0287477
0.0263528
0.00826005
0.00739862
0.268131
0.00508139
0.00598708
0.00757494
0.144172
0.114483
0.0902244
0.0916647
0.0073171
0.00657162
0.0168181
0.00703861
0.0754929
0.00723769
0.00822997
0.00731937
0.0347662
0.0332979
0.00715889
0.00778113
0.00669269
0.1049
0.0693658
0.00845035
0.0238319
0.251009
0.00941942
0.01394
0.00740493
0.0280558
0.00758242
0.00721535
0.0076254
0.0074476
0.00644654
0.00715878
0.00538351
0.00853467
0.00754131
0.0056322
0.00590076
0.00806676
0.00806952
0.512118
0.0190479
0.0137827
0.0073462
0.301736
0.00835645
0.276009
0.0162766
0.0243533
0.0214205
0.00793353
0.362733
0.0251129
0.00535509
0.00779114
0.00634823
0.00666921
0.00826742
0.00768922
0.00818533
0.00693746
0.25084
0.00800773
0.00744796
0.083155
0.00776036
0.17343
0.00701282
0.0476075
0.0056006
0.0195897
0.00856278
0.0078605
0.00840499
0.123546
0.0344017
0.00795723
0.00791443
0.00499936
0.00834024
0.0137682
0.00830396
0.231007
0.00681141
0.0468882
0.00783142
0.00764475
0.43539
0.289115
0.00681913
0.00658854
0.00699753
0.00830046
0.0131708
0.0410041
0.00721531
0.0086531
0.27985
0.715192
0.00791637
0.00729775
0.0082762
0.0779442
0.386376
0.0192908
0.00807996
0.00750022
0.34481
0.00717953
0.0080065
0.00662828
0.0371685
0.347424
0.00772093
0.0204987
0.00781558
0.0250488
0.00735788
0.0253979
0.00607291
0.00641802
0.0900599
0.0361711
0.00841193
0.00854577
1.09927
0.00762582
0.00615915
0.0105219
0.0263402
0.0696446
0.0301124
0.00749901
0.00685244
0.00776025
0.00792336
0.683625
0.014669
0.0122062
0.00711969
0.00794795
0.0432685
0.00711615
0.00728019
0.0072769
0.00697522
0.00784417
0.0136043
0.025953
0.0181247
0.00621485
0.0108717
0.00725559
0.058437
0.00698593
0.00781702
0.577942
0.192939
0.00755248
0.00756001
0.062902
0.00673438
0.00738118
0.0194594
0.00831075
0.00685269
0.00985972
0.00834561
0.0082868
0.00480784
0.00572498
0.0385261
0.120001
0.0302092
0.031111
0.00627196
0.0208238
0.0279038
0.00850912
0.00836313
0.00684484
0.0257859
0.00606676
0.00701768
0.00688835
0.00511005
0.0443285
0.452771
0.0060845
0.00869354
0.00769572
0.0128871
0.00812532
0.00724236
0.00693911
0.0129408
0.00693369
0.00743348
0.00696281
0.00825363
0.0136276
0.0557391
0.159129
0.00698111
0.00711229
0.00755025
0.113255
0.00721818
0.128768
0.00710107
0.0210664
0.140125
0.00771565
0.0176377
0.00849573
0.0065094
0.020947
0.00790962
0.50168
0.00555992
0.006667
0.00841698
0.012645
0.00511191
0.0324924
0.271212
0.00750364
0.00639661
0.00840356
0.00784614
0.0069828
0.0208811
0.00812597
0.0076264
0.00760781
0.00983837
0.0210264
0.00816761
0.00765209
0.00750581
0.0224192
0.00549569
0.00648676
0.0128805
0.0994427
0.00854184
0.00638218
0.00632478
0.00831267
0.0390902
0.00616496
0.147147
0.00784452
0.00659014
0.00793112
0.00731192
0.0847456
0.0109265
0.029024
0.00507697
0.00719049
0.0068262
0.00669355
0.0237857
0.00824218
0.25135
0.0412747
0.225438
0.00661708
0.0102608
0.0842215
0.0686387
0.00725865
0.00865038
0.0337217
0.0125958
0.00804169
0.00529432
0.292633
0.00811557
0.156626
0.00926631
0.00740561
0.021143
0.00753289
0.00718656
0.0068246
0.00781191
0.00708317
0.00477645
0.00818607
0.00652972
0.00698808
0.00837991
0.0183678
0.16235
0.0132536
0.00723167
0.161056
0.320446
0.00782192
0.00477014
0.00710778
0.0219623
0.010368
0.0445749
0.00805542
0.0263446
0.00785665
0.00907783
0.00721919
0.00695903
0.00765947
0.0352444
0.065288
0.00860488
0.00791923
0.00734778
0.265141
0.204459
0.00745928
0.008193
0.00675337
0.00733137
0.0081391
0.00822332
0.00837508
0.00790012
0.00744541
0.00564748
0.0525926
0.0880882
0.00486241
0.00720277
0.00769118
0.00795556
0.00671775
0.231278
0.0082763
0.00624953
0.00765112
0.259078
0.133966
0.0378466
0.00779049
0.0242501
0.00770387
0.00784135
0.264359
0.00715259
0.00815716
0.0068435
0.0329638
0.00602231
0.00593226
0.00814086
0.0106081
0.125313
0.0206478
0.00815374
0.00467283
0.0325264
0.0211409
0.0239226
0.00842889
0.00720042
0.00704124
0.0125151
0.0199864
0.00829367
0.00696329
0.00734653
0.00733786
0.00824223
0.0454402
0.00625122
0.156064
0.197225
0.0455226
0.00809654
0.46136
0.00853073
0.00709929
0.007243
0.00792102
0.00766709
0.00768269
0.0145947
0.12258
0.0157573
0.00765498
0.0194104
0.00767844
0.00859788
0.00730625
0.00754558
0.00696898
0.00794102
0.00814697
0.00721845
0.86953
0.00753778
0.00714186
0.0117559
0.155581
0.00719246
0.00796394
0.0200518
0.914521
0.0071345
0.00786318
0.0100344
0.0182178
0.00845936
0.00809002
0.00699801
0.00860556
0.167093
0.00826958
0.080817
0.00874692
0.123407
0.0074686
0.00821234
0.00597747
0.0288587
0.00776037
0.00727268
0.00738304
0.00831301
0.006141
0.204777
0.006717
0.0268039
0.241753
0.021848
0.00604136
0.0413548
0.00850912
0.00814604
0.00513096
0.00801817
0.00589325
0.00760953
0.2764
0.0071789
0.0104284
0.00731915
0.00459665
0.00540837
0.0198992
0.00777853
0.00693463
0.00804562
0.259987
0.0624609
0.25478
0.0070058
0.00926627
0.00687596
0.00776786
0.263096
0.00753522
0.00830363
0.0060983
0.233174
0.0366703
0.0387623
0.00668523
0.00524317
0.0783483
0.545754
0.00802077
0.00699556
0.284407
0.00759291
0.0179051
0.00792536
0.0907471
0.00759719
0.0278848
0.0083064
0.00730247
0.00844655
0.00764286
0.0137839
0.0074697
0.00715363
0.00780954
0.00722146
0.0100999
0.00710338
0.0396467
0.00676868
0.00683947
0.320092
0.0212405
0.0446443
0.00832576
0.0376752
0.00689967
0.00827513
0.0266883
0.00646167
0.0395257
0.368602
0.00609432
0.0130627
0.00653595
0.00740482
0.0172629
0.0163992
0.00712356
0.0451032
0.00813316
1.05818
0.0324017
0.684194
0.00813355
0.0208419
0.0135594
0.327627
0.00776268
0.00543013
0.00855524
0.00461134
0.127775
0.00815853
0.00890706
0.0445593
0.0274457
0.224834
0.00803252
0.00781612
0.00736255
0.0432246
0.00713552
0.152128
0.00982304
0.0458774
0.380579
0.00827575
0.0156466
0.0322093
0.0293812
0.0889236
0.0202678
0.00756451
0.0114613
0.00482833
0.00810718
0.00778317
0.00856445
0.0201411
0.00660208
0.0083128
0.00554705
0.0590153
0.00479235
0.00803377
0.107943
0.0140834
0.00689452
0.0105061
0.00813781
0.007026
0.00730909
0.185118
0.00739957
0.085767
0.00616516
0.02451
0.00797589
0.00695479
0.00796439
0.00752419
0.0184435
0.0432455
0.070109
0.620543
0.270986
0.532297
0.00681555
0.00681491
0.00961436
0.00838836
0.00592638
0.114412
0.00686099
0.0812065
0.00609911
0.120776
0.00695173
0.00491151
0.00812332
0.295197
0.00862346
0.470322
0.00707608
0.00740933
0.0466059
0.0592504
0.00690385
0.0250287
0.0317375
0.0522809
0.130721
0.0199413
0.217043
0.00866817
0.00773306
0.379537
0.018842
0.0083254
0.00626306
0.0075249
0.00502815
0.00532936
0.0107243
0.00773338
0.0147854
0.613469
0.00751397
0.00723183
0.00738418
0.00818975
0.00881176
0.0054192
0.00691077
0.00563989
0.368268
0.00746757
0.611134
0.0734592
0.0078334
0.121481
0.0589729
0.0159831
0.00677671
0.117946
0.00767826
0.00804633
0.376779
0.00750707
0.00824467
0.00571386
0.0080993
0.00735506
0.132864
0.00734972
0.700615
0.0134745
0.0217367
0.00724284
0.0124141
0.0777464
0.00594038
0.282
0.00776435
0.00986641
0.0352399
0.00662486
0.0151378
0.0304078
0.0207329
0.0074744
0.0364751
0.0695659
0.00645074
0.00733789
0.0274332
0.00694815
0.0189703
0.0245684
0.370391
0.00712904
0.0086026
0.00797424
0.00620605
0.00782853
0.00473978
0.0386566
1.06573
0.00783941
0.024015
0.0280497
0.00819773
0.0346264
0.00710708
0.00711722
2.56713
0.0421133
0.341267
0.176025
0.00816225
0.00793232
0.0219419
0.238732
0.205063
0.253592
0.00492952
0.00816746
0.00720274
0.00600734
0.205101
0.0476671
0.00805095
0.00738308
0.0279554
0.0962106
0.0346268
0.00682237
0.0867692
0.228529
0.00638288
0.00560289
0.00726819
0.00715266
0.232094
0.00524692
0.00834672
0.0151222
0.00772858
0.00652161
0.373312
0.010128
0.00975176
0.0380899
0.0511539
0.00749534
0.182058
0.0219762
0.00836304
0.00458953
0.0149001
0.0066197
0.338199
0.00807341
0.00768419
0.00692913
0.101559
0.00627768
0.00745454
0.0255627
0.00833913
0.00814985
0.00859552
0.00528533
0.00771021
0.0355786
0.0182033
0.00815433
0.460312
0.0355404
0.00809617
0.0314086
0.00699081
0.00517467
0.0321526
0.0080331
0.00816587
0.00789116
0.00687229
0.0079392
0.00720308
0.00806021
0.0501048
0.0385504
0.0058203
0.0912323
0.00688904
0.0229606
0.017824
0.00855482
0.0070414
0.0158869
0.0048816
0.00674485
0.00596299
0.00666974
0.00681037
0.0079662
0.0385202
0.133039
0.0240752
0.100128
0.00859361
0.0116759
0.295531
0.0161986
0.0113343
0.0075862
0.0336988
0.0783977
0.118621
0.00476224
0.0170696
0.0324644
0.00619499
0.00796012
1.02078
0.00488002
0.00671435
0.0283524
0.0268097
0.00584239
0.0123494
0.0163333
0.00459588
0.578011
0.992696
0.00790406
0.00723207
0.0773549
0.047455
0.0104571
0.00811849
0.00648701
0.00839193
0.00717296
0.082592
0.00761277
0.008452
0.140649
0.00892558
0.00729189
0.00770451
0.0075753
0.00679714
0.00857684
0.00717224
0.0130113
0.00703966
0.0087947
0.00803517
0.0311321
0.00818661
0.081987
0.00770466
0.0209405
0.00837318
0.0076982
0.0586246
0.220964
0.00706468
0.00781938
0.00713724
0.0196655
0.00826904
0.00687496
0.00820067
0.00738964
0.00620752
0.00739518
0.0309238
0.00511719
0.061229
0.00847465
0.0096462
0.00790453
0.00670385
0.00751402
0.00850449
0.00802711
0.130423
0.00724043
0.0171888
0.00789967
0.00800468
0.463463
0.00844568
0.00855172
0.133425
0.20114
0.0148861
0.00754521
0.0199081
0.00790287
0.0658859
0.0109326
0.0121785
0.00738244
0.00623802
0.0269867
0.00763538
0.0321269
0.00731861
0.0153468
0.0237862
0.00738035
0.00900403
0.00720821
0.130082
0.0129909
0.00496035
0.022817
0.00642798
0.00596501
0.00840183
0.0104286
0.0298513
0.00751238
0.00812283
0.033956
0.00699228
0.00694669
0.00684082
0.00544744
0.00789233
0.0284366
0.0300075
0.00696404
0.0177762
0.00798315
0.00855055
0.00700699
1.0384
0.00918124
0.0067677
0.163183
0.0321511
0.00820651
0.00707038
0.0289638
0.0105795
0.00663015
0.00717157
0.0144686
0.0359093
0.00753323
0.00693827
0.076744
0.00714707
0.00830247
0.0073291
0.00686014
0.0077059
0.0245769
0.00762674
0.0248282
0.00604121
0.0134016
0.00812941
0.00502532
0.028206
0.00688905
0.0185477
0.00764634
0.00709766
0.0394071
0.0136487
0.00547999
0.00845586
0.00722196
0.324128
0.00724278
0.00719863
1.70167
0.00675274
0.00718336
0.0073702
0.00719106
0.00644661
0.00634677
0.0143298
0.00511948
0.0166318
0.00717947
0.00759886
0.0152271
0.00457626
0.00748412
0.00646537
0.00563961
0.00729203
0.246942
0.00855256
0.0263178
0.00746595
0.00686344
0.00589777
0.00704348
0.0124458
0.00795378
0.0072267
0.00671179
0.00756535
0.0083623
0.0284976
0.0380919
0.0123446
0.0107646
0.0314664
0.00680852
0.00755991
0.00743765
0.22356
0.00724624
0.00625532
0.342214
0.0072486
0.235651
0.153591
0.00711039
0.00810317
0.00677248
0.00536728
0.00492271
0.00705062
0.00795579
0.0210834
0.0372857
0.00469688
0.0349022
0.0078256
0.0715081
0.118304
1.06703
0.0104005
0.0115302
0.00486436
0.00829095
0.00685693
0.0243751
0.00790002
0.0111424
0.00525939
0.0116189
0.00524028
0.0603474
0.0238595
0.0257057
0.279136
0.007826
0.377393
0.00884209
0.00668868
0.00596675
0.00905072
0.00840376