/*--------------------------------*- C++ -*----------------------------------*\
| =========                 |                                                 |
| \\      /  F ield         | OpenFOAM: The Open Source CFD Toolbox           |
|  \\    /   O peration     | Version:  3.0.1                                 |
|   \\  /    A nd           | Web:      www.OpenFOAM.org                      |
|    \\/     M anipulation  |                                                 |
\*---------------------------------------------------------------------------*/
FoamFile
{
    version     2.0;
    format      ascii;
    class       volScalarField;
    location    "0.372215";
    object      epsilon;
}
// * * * * * * * * * * * * * * * * * * * * * * * * * * * * * * * * * * * * * //

dimensions      [0 2 -3 0 0 0 0];

internalField   nonuniform List<scalar> 
21246
(
1083.8
380.462
98.6573
19.1015
4.04807
0.94945
0.246188
0.0765679
0.0322084
0.0187329
0.0138309
676.213
162.79
50.6588
16.314
4.7332
1.28464
0.340689
0.0973065
0.0356314
0.0187634
0.0132777
659.403
167.108
47.0051
17.1641
5.50609
1.60354
0.435866
0.122427
0.0418194
0.0200895
0.0133389
613.78
156.94
41.9887
16.3721
5.41837
1.68702
0.48544
0.141331
0.0478011
0.0219284
0.0139953
564.362
136.361
36.9661
14.7554
4.90579
1.62912
0.494981
0.151873
0.0528796
0.0240188
0.0148903
523.981
116.345
32.5093
12.9799
4.3313
1.49525
0.475498
0.15396
0.05588
0.0256296
0.0157058
489.123
101.238
28.8838
11.3064
3.80454
1.34194
0.441678
0.149845
0.0568493
0.0266742
0.016313
456.126
89.393
25.7823
9.87671
3.34798
1.19377
0.402944
0.142127
0.0562344
0.0271575
0.0168995
429.893
80.2561
23.2001
8.72525
2.9725
1.06477
0.365957
0.13325
0.0548031
0.0273555
0.0173991
413.07
73.764
21.2396
7.86192
2.68431
0.96207
0.334703
0.124969
0.0531474
0.0273845
0.0177261
400.936
69.2211
19.7536
7.21646
2.46671
0.882999
0.309802
0.117995
0.0516121
0.0273332
0.0179914
390.055
65.7534
18.5315
6.70729
2.29757
0.822033
0.290464
0.11251
0.0504001
0.0273189
0.0182128
383.72
63.3944
17.6128
6.33625
2.17693
0.779171
0.276955
0.108797
0.0497086
0.0274551
0.0184659
380.204
64.596
17.428
6.1822
2.11431
0.756589
0.270103
0.107276
0.0497504
0.0278556
0.0188402
379.051
66.476
17.7349
6.23136
2.15064
0.769896
0.275985
0.109966
0.0512466
0.0288096
0.0194887
381.346
69.6313
18.7353
6.54668
2.30323
0.831414
0.301334
0.119955
0.0555266
0.0309095
0.0206466
387.078
75.578
20.9731
7.33033
2.64504
0.971591
0.358467
0.142195
0.0645304
0.0349544
0.0226656
398.875
83.3514
24.3724
8.69361
3.25358
1.23404
0.469289
0.186974
0.0827165
0.0428188
0.0264079
418.882
93.7101
29.3503
10.9368
4.31087
1.72047
0.686829
0.280286
0.122053
0.0597863
0.0342136
451.13
108.066
36.6299
14.5585
6.1548
2.64186
1.13375
0.488714
0.216429
0.102184
0.0536997
503.826
128.822
47.3837
20.3842
9.39645
4.42686
2.09106
0.984839
0.46524
0.224081
0.113015
594.303
159.308
63.5684
29.873
15.1604
7.92991
4.18286
2.20111
1.15243
0.602529
0.317675
759.975
208.981
90.1054
46.2697
25.8167
14.9516
8.78488
5.17065
3.03071
1.76633
1.02599
1186.49
240.444
127.95
76.8625
48.2109
30.8142
19.8555
12.8115
8.24257
5.27646
3.35973
1446.5
669.839
118.687
28.2905
5.97205
1.28051
0.298341
0.0872271
0.0364034
0.021503
0.0159997
2019.3
1249.88
219.444
45.7267
10.1673
2.30764
0.509235
0.131001
0.0481685
0.0265513
0.0191336
2044.58
1269.25
276.462
58.9387
13.6127
3.46745
0.800627
0.199392
0.0683941
0.0366349
0.0267446
1753.15
1076.43
258.067
61.9924
15.1546
4.34675
1.08487
0.277745
0.0943048
0.0510222
0.0386757
1416.44
880.563
227.809
57.6867
15.272
4.77683
1.28974
0.349665
0.122813
0.0690173
0.0547341
1139.24
736.007
197.539
51.3825
14.6225
4.82669
1.39579
0.404231
0.15123
0.0910035
0.07787
926.672
632.393
171.83
45.4702
13.6645
4.65569
1.42497
0.439882
0.177787
0.115891
0.107115
765.995
551.575
150.133
40.3326
12.6211
4.38748
1.40771
0.461098
0.202387
0.143914
0.145704
647.992
487.026
132.357
36.0576
11.6363
4.10527
1.3712
0.474236
0.225213
0.172177
0.182569
559.657
434.904
118.07
32.592
10.7842
3.85299
1.33385
0.484741
0.247113
0.200123
0.222932
492.373
394.115
107.611
30.2058
10.1538
3.66679
1.31228
0.497601
0.268847
0.226611
0.261962
439.402
358.608
100.48
28.9798
9.88337
3.61464
1.34325
0.531472
0.29778
0.254638
0.298597
398.128
327.587
95.9802
28.7415
9.99161
3.71466
1.43429
0.590418
0.335768
0.285191
0.333409
365.415
300.975
94.447
29.7778
10.6116
4.0229
1.60817
0.685297
0.387778
0.320299
0.365235
339.434
278.532
94.3194
31.7204
11.7395
4.58392
1.89571
0.833276
0.46294
0.363773
0.395543
319.256
259.609
95.5976
34.6697
13.525
5.51273
2.36706
1.07239
0.58115
0.425117
0.428156
303.925
243.913
98.4175
38.829
16.1958
6.99495
3.15007
1.47928
0.785685
0.527162
0.475593
293.16
231.501
102.726
44.3648
20.0189
9.30537
4.46256
2.20313
1.17037
0.725337
0.568843
286.902
222.383
108.785
51.6379
25.4087
12.8625
6.67357
3.52999
1.93907
1.15558
0.795526
285.049
216.701
117.129
61.3508
33.1038
18.3743
10.4224
5.99859
3.51821
2.13903
1.38843
287.595
213.641
128.326
74.7343
44.5417
27.2157
16.9288
10.6519
6.77671
4.383
2.90882
292.55
218.428
144.731
94.35
62.6704
42.1907
28.6177
19.521
13.395
9.26785
6.48132
292.718
182.111
127.925
93.0835
69.402
53.098
40.6177
30.8101
23.1136
17.1366
12.5407
1426.59
656.221
354.691
213.195
136.287
89.3534
59.1448
39.2005
25.885
16.9752
11.0317
617.094
273.303
56.631
14.2531
3.47791
1.01299
0.447628
0.30068
0.256746
0.246725
0.252751
813.298
444.968
116.273
24.0997
5.52066
1.46758
0.555459
0.336488
0.278988
0.26968
0.282113
830.417
440.065
150.426
39.6862
8.45966
2.03737
0.703046
0.383155
0.303547
0.29204
0.310176
718.118
389.719
158.34
48.2178
11.5922
2.5973
0.861497
0.434853
0.328569
0.312261
0.333702
574.185
345.464
155.94
52.5719
14.1161
3.2754
1.01364
0.486368
0.352706
0.329595
0.350493
444.229
309.532
151.795
56.4316
16.8094
4.19558
1.21039
0.535944
0.374596
0.343852
0.362756
334.822
279.924
147.758
60.4551
19.9535
5.42389
1.52657
0.60806
0.394228
0.35517
0.37301
246.666
254.844
143.841
64.2399
23.3646
6.97999
1.99314
0.720594
0.421996
0.364549
0.379998
180.457
232.806
140.974
68.0989
27.1109
8.93592
2.67751
0.90491
0.466071
0.375855
0.384393
132.103
213.076
139.66
72.6095
31.4796
11.4646
3.69604
1.21864
0.546293
0.394247
0.388463
96.6567
195.848
139.499
77.5825
36.3453
14.5572
5.12704
1.73027
0.695353
0.430723
0.395112
72.5821
182.284
140.466
82.7227
41.3853
18.0486
6.97034
2.49874
0.957307
0.505299
0.411306
60.4833
172.448
143.008
88.5227
46.7978
21.9731
9.27194
3.60084
1.39589
0.652784
0.451574
59.8776
164.788
147.212
95.7717
53.0856
26.5324
12.132
5.13383
2.09787
0.929917
0.544584
68.255
158.189
152.66
105.01
60.659
31.8696
15.6012
7.1661
3.15191
1.41345
0.740075
78.3935
146.738
155.926
116.603
70.6498
38.689
20.0081
9.87358
4.69242
2.21456
1.11867
83.2768
128.198
150.934
128.08
83.8064
48.0952
26.0536
13.6452
6.96151
3.50842
1.81054
83.9538
107.096
135.455
133.348
98.2821
60.6374
34.6018
19.1162
10.3789
5.58611
3.02932
82.3638
87.6442
113.113
126.82
108.697
75.0867
46.3096
27.2283
15.702
8.9915
5.16096
79.8496
71.1651
89.1667
108.803
108.873
87.4479
60.6202
38.9047
24.0864
14.6978
8.93823
78.5492
58.3057
68.1295
86.3591
98.5388
93.2847
74.9939
54.1243
36.703
24.1064
15.5915
100.328
56.2846
57.9695
70.4672
85.3989
90.5167
83.275
68.2401
51.5952
37.1696
25.8251
149.202
72.4803
69.755
71.0682
73.6716
74.231
71.0576
63.7429
53.5197
42.8431
32.2502
280.895
262.197
228.182
212.197
194.7
171.675
142.697
110.535
80.7894
57.5537
40.0942
535.884
149.187
41.7691
9.71532
2.49005
0.826068
0.404264
0.280915
0.239445
0.226352
0.226726
481.454
119.773
32.6549
10.0254
2.86415
0.956064
0.438323
0.284308
0.231278
0.211417
0.205555
481.506
138.247
33.6154
12.08
3.97842
1.3524
0.549684
0.312415
0.235173
0.206291
0.195558
435.649
131.906
31.4388
12.3524
4.49981
1.67471
0.69442
0.364483
0.252254
0.210115
0.19368
382.652
111.472
28.5634
11.7956
4.41774
1.70879
0.73329
0.394063
0.270448
0.22076
0.199733
337.862
92.0518
25.6075
10.8051
4.13371
1.67533
0.749908
0.413556
0.286602
0.234144
0.211511
302.1
76.9927
22.9887
9.79014
3.80043
1.60232
0.744941
0.425665
0.301677
0.248775
0.225039
272.535
65.5991
20.7346
8.89406
3.49426
1.52141
0.729845
0.432
0.314032
0.26287
0.239685
250.163
57.0444
18.9334
8.15454
3.25609
1.45365
0.715794
0.436704
0.325524
0.278263
0.258803
234.034
50.8117
17.5055
7.58712
3.0984
1.40591
0.707451
0.441835
0.335992
0.292444
0.276319
223.135
46.4432
16.491
7.21054
3.01449
1.38503
0.708375
0.449055
0.345909
0.304878
0.291257
215.828
43.2344
15.7428
6.98269
2.99251
1.39164
0.720356
0.459998
0.356338
0.316329
0.305381
212.401
41.0007
15.2574
6.89749
3.03655
1.43039
0.746739
0.476942
0.36884
0.327814
0.319209
211.211
40.9241
15.2626
7.02308
3.18676
1.52179
0.797898
0.504922
0.38613
0.340867
0.332277
212.096
41.9897
15.7041
7.35525
3.4727
1.69565
0.89648
0.557575
0.416157
0.360585
0.348448
215.485
44.2719
16.6792
7.94238
3.91923
1.97762
1.06229
0.649217
0.467933
0.392472
0.371095
221.847
48.068
18.3623
8.88368
4.58189
2.41173
1.32991
0.805598
0.55893
0.447713
0.406992
232.452
53.4604
20.9279
10.3146
5.54752
3.06483
1.75496
1.07111
0.722203
0.549583
0.472578
249.141
60.9251
24.681
12.4654
6.97344
4.05349
2.43208
1.52396
1.02058
0.746615
0.604988
275.309
71.5753
30.2344
15.7524
9.15648
5.59456
3.53369
2.30757
1.57439
1.13875
0.887255
317.902
87.6243
38.7097
20.9391
12.658
8.11179
5.39571
3.70017
2.62136
1.93144
1.49858
392.982
113.634
52.4859
29.5797
18.6175
12.4841
8.72053
6.28355
4.65825
3.55965
2.82557
544.405
167.686
80.3204
46.7265
30.3753
21.131
15.3738
11.5681
8.96281
7.1446
5.87953
996.319
287.724
149.463
95.5844
68.3244
52.1926
41.457
34.0891
28.8433
24.6824
21.0401
54.955
25.6913
16.38
10.6715
6.21849
3.24871
1.56577
0.719967
0.326082
0.149492
0.0741714
68.6768
26.4165
14.206
8.60744
4.87473
2.50743
1.19565
0.547455
0.247614
0.113499
0.0558426
64.7283
25.2751
13.4428
8.02626
4.5594
2.36199
1.12672
0.511391
0.22736
0.10139
0.0473299
56.2127
22.7645
12.7935
7.83319
4.56603
2.4242
1.17204
0.530056
0.231345
0.100276
0.0452336
48.8146
20.2486
12.1185
7.72366
4.66474
2.55695
1.26188
0.572152
0.246242
0.104164
0.0458084
43.1012
18.1703
11.4764
7.61668
4.76713
2.69773
1.36139
0.621644
0.26556
0.110542
0.0478083
38.2721
16.4192
10.8532
7.47007
4.82797
2.81244
1.45017
0.668914
0.285519
0.117982
0.0503688
34.892
15.0244
10.2389
7.26059
4.82406
2.88188
1.516
0.707691
0.303335
0.125314
0.0538663
32.2975
13.9739
9.67826
7.01591
4.76841
2.90923
1.5578
0.736487
0.318218
0.132259
0.0573639
30.1928
13.164
9.20809
6.78121
4.69218
2.91261
1.58373
0.757993
0.330719
0.138734
0.0605488
28.3927
12.5224
8.81496
6.56729
4.60941
2.90274
1.5997
0.77467
0.341494
0.144643
0.0638763
27.0641
11.9999
8.47174
6.36769
4.52112
2.88269
1.60835
0.787911
0.351036
0.150081
0.0666642
26.1591
11.5928
8.18599
6.19625
4.44297
2.86488
1.61701
0.801093
0.360628
0.155498
0.0695823
25.4355
11.3228
7.97449
6.07142
4.39358
2.86393
1.63483
0.818651
0.372017
0.161522
0.0731091
25.1043
11.1456
7.81808
5.9838
4.37032
2.88174
1.66507
0.843187
0.386703
0.168918
0.076865
25.1683
11.083
7.72722
5.94357
4.38473
2.92981
1.71652
0.879919
0.407241
0.178738
0.0816015
25.5435
11.1908
7.73073
5.96919
4.45843
3.03054
1.8071
0.938654
0.437634
0.192346
0.0877409
26.3772
11.444
7.827
6.06064
4.58931
3.18791
1.94968
1.03556
0.488665
0.214003
0.0963745
27.7876
11.9026
8.04809
6.2412
4.79946
3.42405
2.16487
1.18659
0.571362
0.250937
0.110598
29.9859
12.6606
8.45664
6.55658
5.12644
3.77197
2.48376
1.42033
0.707051
0.315311
0.136329
33.356
13.9207
9.18039
7.10267
5.64201
4.28513
2.95045
1.77694
0.929371
0.43004
0.186456
38.9478
16.0422
10.55
8.12996
6.50802
5.05998
3.62759
2.31026
1.28965
0.637182
0.288647
47.5693
21.3341
13.8393
10.3231
8.09204
6.28959
4.62507
3.10259
1.86634
1.00964
0.500065
101.695
42.7055
24.1558
16.3306
11.8013
8.71013
6.34124
4.39921
2.84491
1.70418
0.952931
27.2484
24.5618
22.2644
16.7599
10.8998
6.06357
2.97996
1.32662
0.567583
0.245457
0.119463
44.4806
27.543
28.1858
24.4575
18.4064
12.5651
7.02967
3.08359
1.24554
0.496418
0.220379
72.4005
36.0224
33.6702
33.1453
26.7219
19.5427
13.0116
7.39147
3.10882
1.11606
0.438971
90.9714
43.5161
37.2355
39.3509
37.9879
29.3036
20.3292
12.7861
6.93974
2.89792
0.962001
102.151
47.6605
38.2783
40.0234
44.4235
41.5636
31.1264
20.4143
11.9945
6.10283
2.43496
109.22
49.1658
37.3941
37.4915
42.518
47.9403
43.0068
30.9
19.1358
10.4783
5.02575
113.945
49.1438
35.8567
34.1052
37.3841
44.711
49.202
41.3794
28.0756
16.3319
8.38931
117.216
48.7279
34.6038
31.1883
32.1987
38.0811
46.9685
47.7301
36.7148
23.1097
12.6276
120.486
48.3928
33.9309
29.1126
28.1172
31.7622
40.706
48.3282
42.6822
29.4264
17.2563
124.288
48.4495
33.9527
27.8762
25.3228
26.9697
34.1935
44.7391
45.3894
34.1195
21.3123
129.222
49.3151
34.7176
27.3912
23.6929
23.9047
29.2444
40.3571
45.8412
36.9553
24.2331
135.633
51.4605
36.1497
27.6439
23.0417
22.3073
26.0543
35.7531
45.0249
38.2277
25.9553
144.809
54.9127
38.3274
28.5952
23.157
21.8013
24.3886
31.4205
42.9363
39.0981
26.2599
156.306
59.5571
41.311
30.1207
23.6621
21.6379
23.3494
28.2203
35.7549
39.5373
25.3817
170.46
65.8234
45.425
32.3421
24.4293
21.3302
21.8453
24.8355
29.4076
32.9943
26.135
188.999
74.2125
51.0619
35.5338
25.6544
21.1271
20.309
21.6429
24.1138
26.3554
25.1495
213.785
85.4501
58.8987
40.2603
27.7951
21.4982
19.3644
19.4575
20.6923
22.2239
22.7399
248.199
100.661
70.2964
47.9013
32.0191
23.3775
19.7988
18.8672
19.1793
19.8333
19.9656
297.826
122.307
89.4035
63.0973
42.5668
30.173
24.2783
22.0163
21.4047
21.13
20.0685
316.163
139.786
111.884
87.1677
63.7702
46.8773
37.5794
33.7382
32.7869
31.3692
31.3601
302.206
133.32
110.485
91.555
72.5442
56.4973
45.836
39.6306
32.2967
25.4001
20.2905
298.158
128.751
106.441
90.7648
75.1271
60.5258
48.7597
36.6779
25.5491
17.6483
11.6519
349.345
129.494
101.499
83.5641
68.575
52.5443
36.932
24.595
16.0262
10.234
6.32823
395.568
136.933
84.2923
57.35
38.4587
25.729
17.1989
11.3657
7.34654
4.57337
2.70947
44.6036
36.8253
37.4305
38.5769
39.6443
39.345
36.5841
29.3772
17.4597
14.9209
13.1049
11.7456
11.3262
11.5051
12.0886
13.2613
13.2935
10.8357
7.6183
6.6564
5.83727
5.45919
5.3623
5.84659
7.41998
8.89904
8.48486
3.80245
3.12705
2.62197
2.55749
2.65372
3.13429
4.25637
5.70643
6.34387
45.8183
43.9731
39.7154
31.1319
15.6626
4.95462
3.55407
2.85895
5.54545
15.8617
15.8384
16.6018
16.5699
13.9425
6.90229
2.15982
2.9834
6.61293
7.85953
8.07585
9.71629
11.9343
12.39
7.16518
2.40869
3.10316
5.91127
4.03062
4.43678
5.66777
7.93144
9.96996
7.15529
2.82525
3.17779
5.15352
0.00900763
0.00829536
0.00834763
0.0397267
0.381974
0.00755687
0.147895
0.00808732
0.00752333
0.00688645
0.381079
0.00812078
0.00938166
0.00469076
0.0145993
0.00728296
0.00509767
0.0392355
0.00724623
0.00711163
0.0066423
0.0632563
0.0085179
0.0828453
0.00792428
0.00468734
0.00918572
0.138403
2.03245
0.414999
0.0055234
0.00640478
0.00589047
0.00806906
0.00676174
0.00826545
0.0750551
0.00790638
0.00659183
0.0075875
0.192157
0.00809965
0.0476708
0.00849242
0.778364
0.398272
0.011594
0.529846
0.00689021
0.00730013
0.408938
0.00761066
0.0802816
0.0489812
0.00729238
0.00667115
0.0615935
0.00763424
1.9596
0.0586101
0.0957119
0.0800739
0.483411
0.0884666
0.238776
0.0071488
0.378417
0.00719041
0.00829733
0.00687441
0.00524202
0.00701171
0.0252882
0.00726777
0.127491
0.00701574
0.0889359
0.00827686
0.0731964
1.08777
0.0689359
0.0730301
0.00793649
0.00838025
0.00694447
0.0261193
3.19845
0.0712137
0.0240023
0.0428877
0.00809322
0.00767568
0.188306
0.00716037
1.06356
0.693595
0.0954774
0.00606928
0.0285086
0.00709829
0.00774534
0.435572
0.00675914
0.00615059
0.0230372
0.00811597
0.00520992
0.00845244
0.00711047
0.00662506
0.00797901
0.00814988
0.00714157
0.0299052
0.0462185
0.00769069
0.00753064
0.00731086
0.00794539
0.0067172
0.0277937
0.00722669
0.00694266
0.00480642
0.346358
0.0080037
0.0354162
0.0054115
0.00507961
0.00573155
0.00780552
0.0579181
0.492015
0.00700523
0.00833871
0.00805745
0.0680878
0.0442692
0.426232
0.0072919
0.0461181
0.00661658
0.270493
0.00868424
0.00749578
0.0195488
0.0161353
0.00719159
0.00700392
0.0070974
0.00717462
0.00768337
0.0210934
0.00718548
0.0345103
0.0160146
0.0292307
0.0444708
0.0058388
0.00746245
0.00546276
0.0349697
0.00701228
0.00771229
0.407355
0.0139153
0.0255129
0.00806828
0.0064585
0.214209
0.00502912
0.00618918
0.00658552
0.0064529
0.00639704
0.00640662
0.00599818
0.0236028
0.803629
0.00695022
0.00719703
0.0675759
0.0084967
0.0899429
0.00794936
0.0310247
0.00712836
0.00726377
0.00825279
0.127357
0.00707301
0.0049506
0.00718871
0.162011
0.00832431
0.00758944
0.00740029
0.0292349
0.00595601
0.00856732
0.0254924
0.00727687
0.00777419
0.00597309
0.00838455
0.0698294
0.00716302
0.00507034
0.00736061
0.00740446
0.0420804
0.00759294
0.0082729
0.00668991
0.00792287
0.109529
0.0079767
0.014137
0.00716552
0.00872014
0.00936664
0.032764
0.0876126
0.043335
0.00477878
0.00765154
0.0593986
0.0114193
0.00644201
0.247059
0.0437216
0.0071379
0.00715884
0.00722355
0.0221478
0.966576
0.198806
0.00844973
0.00814168
0.00810301
0.0141994
0.101049
0.00611955
0.114059
0.00736483
0.041314
0.00800866
0.00652103
0.555635
0.0911976
0.00646107
0.0442471
0.0100927
0.00727287
0.0059956
0.00743997
0.00674544
0.00785581
0.0172477
0.00711462
0.0085529
0.00973075
0.0073788
0.00819597
0.00797265
0.0108997
0.00661078
0.00746999
0.0175841
0.00694131
0.179189
0.00728129
0.0072567
0.0112097
0.00755629
0.00735256
0.00492242
0.00776375
0.00690694
0.0254566
0.00704338
0.00827294
0.0716339
0.174288
0.00600813
0.00757749
1.281
0.00823565
0.00680619
0.0438261
0.00833767
0.128622
0.00793288
0.00727209
0.008564
0.00738946
0.00650398
0.00816244
0.00676476
0.00499734
0.00778815
0.0253782
0.00703885
0.421834
0.00678405
0.00659891
0.00827839
0.0133137
0.064741
0.00741629
0.097013
0.00816077
0.00642568
0.00575
0.0917104
0.00655394
0.00658242
0.0228943
0.00670413
0.00718684
0.00711826
0.0345948
0.00745857
0.00538788
0.047268
0.00707847
0.00779068
0.00575386
0.00709258
0.121685
0.00726743
0.489428
0.0844025
0.00846218
0.0101704
0.817239
0.0299511
0.00823724
0.00784984
0.0059147
0.0302712
0.0457861
0.0072511
0.0169971
0.156897
0.0137113
0.0542112
0.00753295
0.0692834
0.0457773
0.125514
0.0058792
0.0070055
0.00684619
0.0136379
0.00860266
0.0100654
0.00695508
0.00849697
0.121461
0.00985521
0.0048207
0.00800325
0.00799162
0.00726235
0.0242573
0.00578168
0.0129123
0.154486
0.00697916
0.00774029
0.0866819
0.710318
0.00456588
0.0120376
0.00830838
0.00905424
0.00672337
0.00751229
0.00711477
0.0859838
0.00754019
0.0213967
0.00767601
0.00490531
0.300982
0.0268365
0.00480326
0.105518
0.0279402
0.00771867
0.0588601
0.00503187
0.00762265
0.299215
0.261112
0.00788233
0.00720554
0.008353
0.0302387
0.0169407
0.00764545
0.00850501
0.0435195
0.00665012
0.401305
0.0642888
0.010821
0.00727337
0.0336106
0.00756299
0.00719909
0.00699516
0.00668086
0.0196457
0.00637033
0.00717973
0.00741076
0.00489628
0.0481882
0.217495
0.00632933
0.172128
0.00647361
0.00627041
0.00661298
0.00721545
0.0285587
0.00941027
0.305437
0.00790309
0.0209481
0.00503324
0.0066235
0.00860594
0.0135826
0.156809
0.399325
0.00482076
0.00859985
0.00595006
2.68805
0.0477604
0.0268271
0.00701138
0.0261491
0.0723758
0.0405001
0.00740706
0.036086
0.00776146
0.00833554
0.00793674
0.0372463
0.019454
0.164519
0.00499338
0.0273435
0.0259972
0.00825847
0.00739364
0.0374333
0.00505245
0.00596544
0.00747816
0.141711
0.112036
0.0902244
0.0916647
0.00725622
0.00656547
0.0315466
0.00703112
0.0872427
0.00719706
0.00822724
0.00731202
0.0347648
0.0352519
0.00714012
0.00778269
0.00669142
0.165418
0.0713649
0.00845029
0.0173234
0.362333
0.00942047
0.0155392
0.00740237
0.026583
0.00758092
0.00716772
0.00763176
0.00536487
0.00684487
0.00715619
0.00548021
0.0085334
0.00742684
0.00557048
0.00572361
0.0080632
0.00806909
0.556536
0.0209433
0.0290539
0.00727894
0.339667
0.00835628
0.229025
0.0164851
0.0291889
0.012367
0.00791256
0.251459
0.0220161
0.00544428
0.00779124
0.00634039
0.00666688
0.00826697
0.00768721
0.00818182
0.00693877
0.0864644
0.0080008
0.0074459
0.0669742
0.00776102
0.199098
0.00694258
0.0114818
0.00569835
0.0242625
0.00856277
0.00786023
0.0084052
0.138508
0.0363759
0.00795612
0.00791639
0.00479811
0.00833986
0.0461186
0.00830352
0.0815693
0.00681034
0.0498436
0.00680208
0.00777233
0.436142
0.241481
0.0068181
0.00659071
0.00698413
0.00829894
0.0135491
0.0393005
0.007214
0.00617671
0.221203
0.633629
0.00791806
0.00728537
0.00827556
0.0731987
0.215815
0.0198317
0.00807821
0.00750401
0.165667
0.00716
0.0066257
0.00519332
0.0116598
0.297665
0.00772387
0.0202683
0.00781478
0.021976
0.00735237
0.133136
0.00625542
0.00641157
0.0959707
0.0171748
0.00841215
0.00854589
1.07706
0.00762618
0.0061563
0.0310545
0.0265107
0.0802118
0.029533
0.00675907
0.00684439
0.00776267
0.00791718
0.66841
0.010621
0.0121712
0.00711745
0.00794957
0.0534378
0.00709854
0.00721657
0.00725443
0.00696314
0.00644519
0.0103373
0.0274461
0.0180534
0.00619897
0.0106058
0.00725102
0.0418667
0.00697739
0.00781474
0.613205
0.0637338
0.0075526
0.00755871
0.0643981
0.0067259
0.00737627
0.0194382
0.00830991
0.00686965
0.0080832
0.00706405
0.00828404
0.00451702
0.00583582
0.0471221
0.0212159
0.0287431
0.0240853
0.00637686
0.0260613
0.0249977
0.00875235
0.00836292
0.00684241
0.0462744
0.0060502
0.00701148
0.00703746
0.00506133
0.0475087
0.493481
0.00609582
0.00782137
0.00769726
0.0125646
0.00812534
0.00723346
0.00693078
0.0114617
0.00693021
0.00733955
0.00695556
0.00825127
0.0418583
0.0552879
0.248875
0.00697338
0.00709349
0.00754896
0.0358257
0.00716351
0.1573
0.00709189
0.123614
0.0209759
0.00771808
0.0171746
0.00849542
0.00570498
0.0468258
0.00647553
0.53902
0.00553363
0.00665188
0.00841679
0.0132688
0.00507429
0.0376667
0.0396776
0.00750392
0.00638799
0.0084033
0.00784472
0.00697769
0.0158554
0.00812529
0.00763299
0.00760601
0.00931378
0.0184236
0.00816694
0.00783093
0.00750492
0.010524
0.00585527
0.00648088
0.0342185
0.100196
0.00742408
0.00636163
0.00583212
0.00739429
0.0281833
0.00544523
0.158168
0.00784409
0.00573529
0.00792825
0.00725645
0.0900439
0.0121512
0.0276063
0.00467431
0.00717295
0.0068484
0.00669041
0.0149462
0.00824051
0.0456583
0.0415546
0.0840153
0.00663283
0.0102586
0.0428406
0.0814549
0.00723822
0.00743007
0.034828
0.0237717
0.00803787
0.00485087
0.224918
0.00811604
0.177888
0.00935661
0.00730376
0.120676
0.00753754
0.00713932
0.00681656
0.00790409
0.00706075
0.00463241
0.00818584
0.0057142
0.00697766
0.0070619
0.0209136
0.0591824
0.00678121
0.00722684
0.135087
0.34889
0.00782344
0.00448043
0.00709862
0.0294408
0.0101684
0.0467108
0.0081441
0.0485564
0.00680789
0.0089958
0.00721042
0.0069269
0.00766121
0.050363
0.0653293
0.00860514
0.00791349
0.00733602
0.386291
0.0427776
0.00672373
0.00819015
0.00586007
0.00766949
0.00813761
0.00822139
0.00837456
0.00789836
0.00735121
0.00579484
0.0557444
0.0696804
0.00538196
0.00752839
0.00769076
0.00795082
0.00670923
0.127875
0.00827505
0.00626863
0.00787954
0.292729
0.0601781
0.0356219
0.00778624
0.0537872
0.00770386
0.00784179
0.29499
0.00715143
0.00815351
0.00698302
0.00984773
0.00600984
0.00591821
0.00814096
0.0107315
0.131816
0.024225
0.0081497
0.00489701
0.0354883
0.0178222
0.0421371
0.00842841
0.00719132
0.039186
0.00961591
0.0263339
0.00829305
0.00695669
0.00725373
0.00733147
0.00824025
0.0976504
0.00629554
0.178136
0.217121
0.0430081
0.00809362
0.459666
0.00853056
0.00709073
0.00696734
0.00791748
0.00766671
0.00768818
0.0208534
0.0878161
0.0157174
0.00765421
0.0543834
0.00767722
0.00859863
0.00729546
0.0075435
0.00715139
0.00793947
0.00814703
0.00718911
0.947874
0.00753902
0.00713946
0.0126798
0.187498
0.00716431
0.00796377
0.0553095
0.857657
0.00711015
0.00774074
0.00802163
0.0490212
0.00845948
0.00809068
0.00702611
0.00860643
0.0300714
0.00826821
0.0652966
0.00728387
0.0219139
0.00639888
0.00820979
0.00522543
0.0288574
0.00776231
0.00724806
0.00730604
0.00831208
0.0060505
0.234689
0.00665496
0.0189227
0.0616753
0.0290413
0.00602334
0.0502028
0.00850921
0.00814257
0.00523879
0.00720683
0.00519523
0.00761599
0.231808
0.00716717
0.00861438
0.00731297
0.00451087
0.00595891
0.027689
0.00619833
0.00693596
0.00804708
0.195368
0.0616458
0.0336837
0.00708761
0.00741269
0.00697455
0.00776847
0.0593662
0.00753453
0.00830231
0.00609387
0.264714
0.087752
0.0384967
0.00520501
0.00479078
0.10671
0.461948
0.00802068
0.00713149
0.0437004
0.00759273
0.0172828
0.0079213
0.0316052
0.00645795
0.0104957
0.00830502
0.00753372
0.00844668
0.00764891
0.00724769
0.0325957
0.00713718
0.00780658
0.00719591
0.00980047
0.00752644
0.0448613
0.00678494
0.00683855
0.364994
0.0136351
0.0476751
0.00832502
0.0118168
0.00601317
0.00827482
0.027062
0.00645674
0.0534919
0.345882
0.00607695
0.011607
0.00653076
0.00739955
0.0125424
0.00890473
0.00710331
0.0134178
0.00813361
0.977961
0.00971359
0.621491
0.00813351
0.0205725
0.0346242
0.378906
0.0078698
0.00597319
0.00855523
0.00493557
0.189799
0.00815631
0.00890631
0.124516
0.0165657
0.129833
0.00679835
0.00781582
0.00735694
0.0464277
0.00709694
0.172924
0.00871991
0.011102
0.244218
0.00827444
0.0119196
0.035346
0.0287841
0.0301019
0.0261454
0.00756217
0.0116998
0.0045222
0.00810657
0.00777991
0.00856482
0.108602
0.0066136
0.00831259
0.00548898
0.0397334
0.00449556
0.00803017
0.116273
0.0133576
0.00689184
0.00880388
0.0081366
0.00701441
0.00729819
0.201793
0.00731068
0.0700689
0.00614832
0.0277598
0.0079737
0.00695242
0.00796444
0.00752329
0.0283858
0.191514
0.0412507
0.691661
0.299921
0.448653
0.00680637
0.00693725
0.0251567
0.0083877
0.0059541
0.0901608
0.006853
0.0945493
0.00603293
0.257683
0.00694489
0.00481965
0.0081225
0.198408
0.00862391
0.51282
0.0067417
0.00735373
0.0509485
0.0366042
0.00690387
0.0192331
0.0359387
0.0496819
0.0628335
0.0199289
0.27205
0.00569786
0.0260831
0.396082
0.0131888
0.00832475
0.00578282
0.00741446
0.00498769
0.00533964
0.0250172
0.00772852
0.0109934
0.696237
0.00751246
0.00719784
0.00741094
0.00818663
0.00751791
0.00542505
0.00690303
0.00568156
0.338589
0.00736313
0.5829
0.0794332
0.00772194
0.150668
0.0581241
0.0112344
0.00748235
0.0205014
0.00767933
0.00804702
0.263101
0.00750454
0.00824372
0.00534098
0.00809876
0.00727833
0.257581
0.00734169
0.718078
0.0138206
0.0307003
0.00723846
0.0125628
0.0434984
0.0051931
0.31444
0.00776555
0.00870353
0.0542216
0.00571981
0.0150516
0.0304072
0.00864864
0.00747377
0.0874451
0.0163618
0.0064452
0.00733265
0.0215069
0.00693642
0.0152018
0.0285608
0.333265
0.00712892
0.00860308
0.00797614
0.00621111
0.00701027
0.00451936
0.0369942
1.10742
0.00792337
0.0239983
0.028048
0.00819734
0.0350621
0.00710553
0.00709516
2.30312
0.0396162
0.381225
0.274468
0.00815865
0.00793154
0.0216136
0.325151
0.0491885
0.273337
0.00488109
0.00816726
0.00718146
0.0052532
0.0339287
0.0474059
0.00664007
0.0073779
0.0273644
0.057971
0.0221518
0.00682091
0.0706202
0.355993
0.00637823
0.00556787
0.0072604
0.00714781
0.321046
0.00471922
0.00704524
0.0151219
0.00770385
0.00652294
0.432657
0.0312848
0.00781563
0.0902617
0.0391869
0.00749952
0.196203
0.0528312
0.0083616
0.00508899
0.0159347
0.00661073
0.0750907
0.00807324
0.00768255
0.00691908
0.105131
0.00701902
0.00745414
0.0211475
0.00833786
0.0081473
0.00859552
0.00489575
0.00771099
0.0166685
0.0176364
0.00815329
0.418727
0.0406376
0.00621312
0.0311914
0.00730066
0.00513233
0.0315967
0.00802616
0.00816309
0.00788686
0.00591198
0.00793907
0.00718889
0.00793963
0.0498936
0.0537499
0.00509946
0.0349977
0.0068796
0.0560622
0.017235
0.00855484
0.00694479
0.0158933
0.00490963
0.00674314
0.00598673
0.00666764
0.00679611
0.00795957
0.0398764
0.0203967
0.024072
0.0608503
0.00859361
0.0112911
0.0476107
0.0141446
0.00906704
0.00758586
0.0336967
0.100077
0.144552
0.00479774
0.00728374
0.0314506
0.0054615
0.00796166
1.05287
0.00539084
0.00670764
0.0165783
0.0156981
0.00585397
0.0244099
0.0386185
0.0049382
0.582305
1.08009
0.00790325
0.00719477
0.075118
0.195657
0.0104567
0.00811614
0.00631007
0.00839085
0.00714883
0.0875911
0.00761308
0.00845235
0.150719
0.0292168
0.00727766
0.00770482
0.00758051
0.00679611
0.00857727
0.00715136
0.011762
0.00703339
0.00879566
0.00803289
0.0204105
0.00818293
0.0628097
0.00770273
0.0209401
0.00837312
0.0078787
0.070252
0.287052
0.00706439
0.00782033
0.00604167
0.00820795
0.0082675
0.00713374
0.00671569
0.00738591
0.00618561
0.00748578
0.0304347
0.00507144
0.0472507
0.00847507
0.033069
0.00789862
0.00670182
0.0073836
0.00845789
0.00802821
0.263637
0.00718368
0.0464861
0.00789817
0.00800609
0.392846
0.00844564
0.00855165
0.107144
0.15287
0.0272093
0.00754261
0.0199049
0.00789761
0.112766
0.00635617
0.0536099
0.00735974
0.00601327
0.0261546
0.00763961
0.0321269
0.00725672
0.0153458
0.0147732
0.00728987
0.0078194
0.00715831
0.142062
0.0135362
0.00476665
0.0267925
0.00642305
0.0059439
0.00840078
0.0104266
0.0279771
0.00751062
0.00812223
0.0481814
0.00703236
0.00693862
0.00682915
0.00531204
0.00789383
0.022403
0.0285231
0.00703037
0.0179172
0.0079823
0.0079249
0.00700166
1.00098
0.00735665
0.00681385
0.0324867
0.032151
0.0082041
0.00706944
0.0289645
0.0105713
0.0066289
0.00715314
0.00720564
0.0286921
0.00753722
0.00693621
0.0836835
0.0071435
0.0083018
0.00727535
0.00685375
0.00777153
0.0165783
0.00762645
0.0331366
0.00525188
0.0134033
0.00812967
0.00495317
0.0301076
0.00689086
0.00776856
0.00764485
0.00707762
0.0385159
0.0136523
0.00496447
0.00845533
0.00717606
0.35151
0.00759224
0.00716199
2.02285
0.00675263
0.0071539
0.0072912
0.00715615
0.00643592
0.00632724
0.0103743
0.00500383
0.023437
0.00715234
0.00760446
0.0131966
0.00508328
0.00748373
0.0064597
0.00562224
0.00728603
0.0572798
0.00855333
0.0183845
0.00746718
0.00686352
0.00599622
0.00606989
0.0127453
0.00795502
0.00722247
0.00670205
0.00756529
0.00836207
0.0279834
0.0534902
0.0367132
0.0103455
0.045166
0.00683935
0.0075643
0.00743871
0.355926
0.00724868
0.00545579
0.373228
0.00726183
0.109735
0.124508
0.00707456
0.00810255
0.00670302
0.00527107
0.00490227
0.00702509
0.00816949
0.00877848
0.0388436
0.00488115
0.0340796
0.00782681
0.0451138
0.0774107
1.05374
0.00872011
0.00975408
0.0048556
0.00828896
0.00684182
0.0196729
0.00790072
0.0111557
0.00488032
0.0113277
0.0053194
0.0378091
0.0216378
0.024073
0.137913
0.00782199
0.270736
0.00765109