/*--------------------------------*- C++ -*----------------------------------*\
| =========                 |                                                 |
| \\      /  F ield         | OpenFOAM: The Open Source CFD Toolbox           |
|  \\    /   O peration     | Version:  3.0.1                                 |
|   \\  /    A nd           | Web:      www.OpenFOAM.org                      |
|    \\/     M anipulation  |                                                 |
\*---------------------------------------------------------------------------*/
FoamFile
{
    version     2.0;
    format      ascii;
    class       volScalarField;
    location    "0.372215";
    object      nut;
}
// * * * * * * * * * * * * * * * * * * * * * * * * * * * * * * * * * * * * * //

dimensions      [0 2 -1 0 0 0 0];

internalField   nonuniform List<scalar> 
21246
(
4.60058e-05
0.000190037
0.000205977
0.000245911
0.00030432
0.000351639
0.000373959
0.000361231
0.00032502
0.00029272
0.000274384
2.90356e-05
0.000145129
0.000224714
0.000286966
0.000334495
0.000367002
0.00038308
0.000375526
0.00034088
0.000302965
0.000280227
2.74702e-05
0.000125245
0.000207663
0.000290185
0.000342386
0.000375062
0.000391775
0.000387118
0.000354912
0.000313603
0.000285826
2.87053e-05
0.000109152
0.00018676
0.000277095
0.000334455
0.000374833
0.000396853
0.000396209
0.000366845
0.000324696
0.000293822
3.06925e-05
9.63664e-05
0.00016984
0.000259005
0.000318603
0.000367669
0.000395926
0.000401025
0.000375958
0.000334639
0.000301173
3.26337e-05
8.62843e-05
0.000156235
0.000240421
0.000300535
0.000354536
0.000388426
0.000399848
0.00037989
0.000341025
0.000307079
3.4527e-05
7.8509e-05
0.000144632
0.000222596
0.000282636
0.000338543
0.000376405
0.000393347
0.000378917
0.000343904
0.000310756
3.6397e-05
7.25423e-05
0.000134655
0.00020672
0.000265846
0.000321661
0.000361833
0.000383024
0.000373946
0.000343843
0.000314033
3.80744e-05
6.77449e-05
0.000125926
0.000192948
0.000250576
0.000305252
0.000346454
0.000370664
0.000366498
0.000341883
0.00031597
3.95138e-05
6.36277e-05
0.000118031
0.000180927
0.000236825
0.000289999
0.000331388
0.000357571
0.000357567
0.000338248
0.000316013
4.08364e-05
6.01104e-05
0.000110831
0.000170239
0.00022435
0.000275932
0.000316981
0.000344317
0.00034766
0.000333167
0.000315015
4.19131e-05
5.72035e-05
0.000104333
0.000160646
0.000212936
0.000262899
0.00030325
0.000331106
0.000337058
0.00032689
0.000312703
4.26408e-05
5.4696e-05
9.83338e-05
0.000151944
0.000202468
0.000250887
0.000290257
0.000318087
0.000325937
0.000319552
0.000309239
4.30166e-05
5.13827e-05
9.11506e-05
0.000142903
0.000192565
0.000239736
0.000277931
0.000305263
0.000314294
0.000311096
0.000304713
4.29138e-05
4.84623e-05
8.31913e-05
0.000131769
0.000179056
0.000224714
0.000261825
0.00028939
0.000300418
0.000300708
0.000298594
4.22989e-05
4.56077e-05
7.43548e-05
0.000118278
0.00016158
0.000203935
0.000238661
0.000266266
0.000280637
0.000285872
0.000288831
4.1246e-05
4.24687e-05
6.4404e-05
0.000101768
0.000139705
0.00017701
0.000208103
0.000234956
0.000253355
0.000264825
0.000273743
3.95445e-05
3.94997e-05
5.50451e-05
8.44443e-05
0.000115625
0.00014629
0.00017223
0.000196157
0.000216994
0.000234805
0.000250638
3.71798e-05
3.65601e-05
4.67021e-05
6.78225e-05
9.13486e-05
0.000114387
0.00013392
0.00015235
0.00017147
0.000192506
0.000214764
3.41271e-05
3.34624e-05
3.95136e-05
5.32352e-05
6.9199e-05
8.46605e-05
9.74752e-05
0.000109028
0.000121916
0.000139132
0.000161948
3.03161e-05
2.99938e-05
3.33923e-05
4.14183e-05
5.10155e-05
6.01085e-05
6.72354e-05
7.28112e-05
7.85318e-05
8.69634e-05
0.000100746
2.57132e-05
2.59711e-05
2.80468e-05
3.23279e-05
3.73936e-05
4.20096e-05
4.52945e-05
4.72005e-05
4.84172e-05
5.01809e-05
5.40222e-05
2.02488e-05
2.08911e-05
2.26671e-05
2.4995e-05
2.74395e-05
2.9491e-05
3.07374e-05
3.10504e-05
3.06205e-05
2.99029e-05
2.95058e-05
1.43412e-05
1.89655e-05
2.02094e-05
2.10268e-05
2.16056e-05
2.19398e-05
2.194e-05
2.15355e-05
2.07343e-05
1.96464e-05
1.84675e-05
4.53005e-05
0.000189825
0.000203719
0.000252623
0.000292697
0.000328784
0.000344827
0.000328426
0.000293526
0.000267071
0.000255506
3.45703e-05
0.000155425
0.000140034
0.000227674
0.000279152
0.00031444
0.000328199
0.000313585
0.000277997
0.000250361
0.000239071
3.4068e-05
0.000129043
0.00012144
0.000207926
0.000270041
0.000313391
0.000321261
0.000298758
0.000254986
0.000220831
0.000205931
3.65853e-05
0.000112938
0.000116712
0.000192811
0.000260369
0.000313305
0.000317183
0.000284137
0.000229639
0.000189151
0.000170979
3.9603e-05
0.000104353
0.000112214
0.000179048
0.000250319
0.000308224
0.000310144
0.000268692
0.000205573
0.000161387
0.000141268
4.21325e-05
0.000100611
0.000108109
0.000167332
0.000240013
0.000298024
0.000298738
0.000251573
0.000183377
0.000138094
0.000117314
4.41426e-05
9.93129e-05
0.000104496
0.000157657
0.000229543
0.000284872
0.000284319
0.000233284
0.000163258
0.00011887
9.80441e-05
4.58619e-05
9.90256e-05
0.000101283
0.000149509
0.000219185
0.000270708
0.000268645
0.000214954
0.000145561
0.000103548
8.36579e-05
4.70902e-05
9.90677e-05
9.83929e-05
0.000142385
0.000209207
0.000256879
0.000253258
0.00019776
0.000130703
9.23346e-05
7.55216e-05
4.78002e-05
9.92865e-05
9.5758e-05
0.00013592
0.0001998
0.000244111
0.000239167
0.000182492
0.000118703
8.41252e-05
6.97067e-05
4.79548e-05
9.94871e-05
9.31647e-05
0.000129122
0.00019049
0.000232246
0.000226776
0.00016958
0.000109385
7.82496e-05
6.60431e-05
4.77263e-05
9.93022e-05
9.01816e-05
0.00012059
0.000177397
0.000216063
0.000211102
0.000157259
0.000102887
7.4528e-05
6.38667e-05
4.70325e-05
9.85706e-05
8.69818e-05
0.000110913
0.000160948
0.000196148
0.000193134
0.00014609
9.86107e-05
7.2467e-05
6.27823e-05
4.58982e-05
9.70138e-05
8.36257e-05
0.000100223
0.000141457
0.000172864
0.000173163
0.000135644
9.58359e-05
7.17747e-05
6.25096e-05
4.427e-05
9.49131e-05
8.04884e-05
9.00395e-05
0.000121441
0.000148009
0.000151645
0.000124872
9.35161e-05
7.20634e-05
6.29362e-05
4.21367e-05
9.20594e-05
7.76173e-05
8.09189e-05
0.000102446
0.000123104
0.000128898
0.000112489
9.0219e-05
7.26593e-05
6.38973e-05
3.95051e-05
8.82362e-05
7.4993e-05
7.32364e-05
8.5784e-05
9.99555e-05
0.00010589
9.76608e-05
8.4121e-05
7.20499e-05
6.48826e-05
3.63075e-05
8.33299e-05
7.25043e-05
6.72153e-05
7.24073e-05
8.02962e-05
8.44707e-05
8.09695e-05
7.40051e-05
6.7748e-05
6.4011e-05
3.25011e-05
7.71157e-05
6.98587e-05
6.27584e-05
6.25606e-05
6.51349e-05
6.65612e-05
6.45383e-05
6.08687e-05
5.8211e-05
5.79309e-05
2.80823e-05
6.9281e-05
6.65533e-05
5.94894e-05
5.59631e-05
5.46138e-05
5.33077e-05
5.08313e-05
4.78379e-05
4.5789e-05
4.59306e-05
2.3052e-05
5.94826e-05
6.18906e-05
5.67493e-05
5.19986e-05
4.83015e-05
4.49262e-05
4.13985e-05
3.79246e-05
3.51107e-05
3.35881e-05
1.7431e-05
4.89037e-05
5.55054e-05
5.35335e-05
4.95542e-05
4.52005e-05
4.08076e-05
3.65016e-05
3.24541e-05
2.8896e-05
2.60245e-05
1.13828e-05
3.55161e-05
4.16545e-05
4.25872e-05
4.09202e-05
3.6875e-05
3.2365e-05
2.80797e-05
2.42422e-05
2.09303e-05
1.81315e-05
9.62129e-06
1.05136e-05
1.09329e-05
1.13418e-05
1.15833e-05
1.1837e-05
1.20322e-05
1.21164e-05
1.20525e-05
1.1832e-05
1.14782e-05
3.75487e-05
0.000159148
0.000175816
0.000203148
0.000210505
0.000196689
0.00016369
0.000135401
0.00011714
0.000103903
9.24886e-05
3.07895e-05
0.000119925
0.0001216
0.000172999
0.000212002
0.000205518
0.000168865
0.000133463
0.000111102
9.55642e-05
8.24411e-05
2.95793e-05
9.34109e-05
0.000104956
0.00013479
0.000188098
0.000211065
0.000177746
0.000135804
0.000108692
9.08777e-05
7.68733e-05
3.02004e-05
7.88265e-05
9.74458e-05
0.000119245
0.000163644
0.000211214
0.000187195
0.000140811
0.000109089
8.91367e-05
7.44941e-05
3.0861e-05
7.201e-05
9.2448e-05
0.000109911
0.000147073
0.000200296
0.000195015
0.000147281
0.000111501
8.96124e-05
7.46917e-05
3.09129e-05
6.907e-05
8.86094e-05
0.000102733
0.00013261
0.000180656
0.000196391
0.000154496
0.000115294
9.15316e-05
7.61436e-05
3.0494e-05
6.84682e-05
8.59863e-05
9.73347e-05
0.000120163
0.000158449
0.000185394
0.000160836
0.000120145
9.44488e-05
7.83669e-05
2.97461e-05
6.98011e-05
8.48957e-05
9.38012e-05
0.000110556
0.000138923
0.000166945
0.000160844
0.000126245
9.86023e-05
8.13201e-05
2.86241e-05
7.21862e-05
8.52888e-05
9.17959e-05
0.000103282
0.000122969
0.000146293
0.000152816
0.000130847
0.000103675
8.51659e-05
2.71637e-05
7.51426e-05
8.70472e-05
9.11068e-05
9.78306e-05
0.000110114
0.000126526
0.000137717
0.000130816
0.000108938
8.97081e-05
2.55714e-05
7.90013e-05
9.05063e-05
9.20628e-05
9.4481e-05
0.000100741
0.000110401
0.000120079
0.000123808
0.000112542
9.48075e-05
2.40855e-05
8.47097e-05
9.63416e-05
9.51508e-05
9.35096e-05
9.48573e-05
9.89389e-05
0.000104556
0.00011146
0.000111673
9.96872e-05
2.31427e-05
9.3072e-05
0.00010534
0.000100976
9.50595e-05
9.19688e-05
9.14541e-05
9.27518e-05
9.77681e-05
0.000104642
0.000102276
2.32414e-05
0.000104916
0.000118837
0.000110839
9.98727e-05
9.21117e-05
8.74357e-05
8.484e-05
8.61017e-05
9.32721e-05
9.96625e-05
2.41934e-05
0.000121953
0.000139103
0.0001271
0.000109609
9.61351e-05
8.70673e-05
8.08777e-05
7.82925e-05
8.20157e-05
9.12677e-05
2.49573e-05
0.000141442
0.000166143
0.000152415
0.000127088
0.000105857
9.11309e-05
8.09479e-05
7.46923e-05
7.4051e-05
8.06898e-05
2.47629e-05
0.000157677
0.000195662
0.000187203
0.00015582
0.000124714
0.000101929
8.62594e-05
7.58588e-05
7.08547e-05
7.26653e-05
2.36188e-05
0.000168016
0.000222138
0.000226913
0.000196965
0.000156828
0.000123539
9.98456e-05
8.37261e-05
7.38599e-05
7.04155e-05
2.17478e-05
0.000171799
0.000241371
0.000263197
0.000245654
0.000204097
0.000161052
0.00012699
0.000102563
8.61388e-05
7.67175e-05
1.93062e-05
0.000168549
0.000250726
0.000289014
0.000291776
0.000262539
0.000217992
0.00017483
0.000139971
0.000114269
9.68244e-05
1.64713e-05
0.000156846
0.000249807
0.000303039
0.000327842
0.000322954
0.000292035
0.000248901
0.000205901
0.000169326
0.00014101
1.43371e-05
0.000137053
0.00023511
0.000299966
0.000344484
0.000365075
0.000360434
0.000334562
0.000296842
0.000256657
0.000219036
1.17722e-05
0.000110799
0.000173651
0.000226114
0.000269807
0.000304355
0.00032929
0.000340515
0.000335973
0.000319288
0.000292722
8.88404e-06
3.16701e-05
5.06067e-05
7.32606e-05
9.89695e-05
0.000128096
0.000159745
0.000189477
0.000212157
0.000226968
0.000232103
3.20941e-05
0.000151507
0.000176241
0.000192538
0.000203734
0.000194373
0.000167709
0.000143536
0.00012721
0.000115123
0.000104424
2.11864e-05
0.000118398
0.000170544
0.000201812
0.000214298
0.000208175
0.000184063
0.000159128
0.000142232
0.00013063
0.000121117
2.0856e-05
0.000100532
0.000159074
0.000218089
0.000237855
0.000232587
0.000206968
0.000177467
0.000157633
0.000145435
0.000136739
2.2861e-05
9.14865e-05
0.000149558
0.000223615
0.000255174
0.000255567
0.000231365
0.000198678
0.000173816
0.000158584
0.000148807
2.54995e-05
8.47941e-05
0.000145037
0.000222141
0.00025741
0.000262955
0.000242372
0.000211256
0.000186208
0.000170395
0.000160241
2.80446e-05
7.98859e-05
0.000142062
0.000217455
0.000255254
0.000266182
0.00024907
0.000219275
0.000194597
0.000179134
0.000169861
3.03674e-05
7.62656e-05
0.00013952
0.000211793
0.000251028
0.000266228
0.000252332
0.000224545
0.000200769
0.000185682
0.000176751
3.25276e-05
7.35935e-05
0.000137246
0.000206389
0.000246448
0.000264854
0.000253636
0.000227951
0.000205257
0.000190723
0.0001822
3.43551e-05
7.15291e-05
0.000134998
0.000201507
0.000242567
0.000263385
0.000254471
0.000230591
0.000208889
0.000194958
0.000186933
3.58344e-05
6.97082e-05
0.000132878
0.000197302
0.00023973
0.000262288
0.000255547
0.00023313
0.000212086
0.000198484
0.000190516
3.69463e-05
6.78676e-05
0.00013055
0.000193687
0.000237589
0.000261953
0.000257405
0.000236151
0.000215434
0.000201949
0.000193986
3.77904e-05
6.60047e-05
0.000128034
0.000190459
0.000235911
0.000262408
0.000260325
0.000240182
0.000219526
0.000205921
0.000197611
3.8296e-05
6.39447e-05
0.000125181
0.000187309
0.000234478
0.000263599
0.00026456
0.00024577
0.000225032
0.000211169
0.000202649
3.8398e-05
6.02221e-05
0.000119855
0.000181901
0.000231092
0.000263696
0.000269354
0.000253238
0.000232691
0.00021851
0.000210096
3.8027e-05
5.5935e-05
0.000111922
0.000172666
0.000222579
0.000257966
0.000269994
0.000260269
0.000242531
0.000228741
0.000220467
3.71545e-05
5.12336e-05
0.00010156
0.000159622
0.000209188
0.000246282
0.000264883
0.000264378
0.000253169
0.000241851
0.000234306
3.5778e-05
4.6228e-05
8.92105e-05
0.00014282
0.000191003
0.000228748
0.000252756
0.000262162
0.000260989
0.000255929
0.00025121
3.38142e-05
4.12188e-05
7.59451e-05
0.000123079
0.000168478
0.000205852
0.000233318
0.000250836
0.000260631
0.000265678
0.000268042
3.12238e-05
3.62713e-05
6.27312e-05
0.000101612
0.000142309
0.000178015
0.000206906
0.000229424
0.000247631
0.000263259
0.000276406
2.79748e-05
3.13094e-05
5.01765e-05
7.98133e-05
0.000113631
0.000145791
0.000174022
0.000198453
0.000220894
0.000243207
0.000265852
2.40342e-05
2.61965e-05
3.86874e-05
5.91623e-05
8.43959e-05
0.000110616
0.000135667
0.000159137
0.000182051
0.000206028
0.000232276
1.94099e-05
2.0803e-05
2.83561e-05
4.08251e-05
5.70358e-05
7.53004e-05
9.43412e-05
0.000113669
0.000133648
0.000155259
0.000179738
1.41363e-05
1.4653e-05
1.85163e-05
2.47626e-05
3.30908e-05
4.3047e-05
5.42272e-05
6.64681e-05
7.9963e-05
9.52781e-05
0.000113483
8.53037e-06
9.1e-06
1.15218e-05
1.48409e-05
1.90213e-05
2.40377e-05
2.98054e-05
3.7124e-05
4.69452e-05
5.9302e-05
7.4036e-05
1.65146e-05
0.00012745
0.000214633
0.000283145
0.000332741
0.000372322
0.000409438
0.000445025
0.000470366
0.000477082
0.000462366
1.33717e-05
0.000104152
0.000190421
0.000263942
0.000316317
0.000355225
0.000388497
0.00041757
0.000436661
0.00043938
0.000423703
1.25302e-05
8.63457e-05
0.000166687
0.000241666
0.000298048
0.000338978
0.000371459
0.000398103
0.00041446
0.000414224
0.000394048
1.28123e-05
7.97072e-05
0.000156181
0.000229236
0.000286258
0.000327344
0.000358222
0.00038287
0.00039859
0.000399221
0.000380629
1.34545e-05
7.86691e-05
0.000153975
0.000225003
0.00028115
0.000321182
0.000349734
0.000371901
0.000387045
0.000389441
0.000373542
1.4077e-05
7.95716e-05
0.000155301
0.000225109
0.000280289
0.000319179
0.000345612
0.000365407
0.00037987
0.000384188
0.000371619
1.46577e-05
8.13614e-05
0.000158121
0.000227283
0.000281732
0.000319786
0.000344713
0.000362729
0.00037663
0.000382431
0.000371829
1.53363e-05
8.40134e-05
0.000161778
0.000230598
0.000284461
0.000321905
0.000345889
0.000362824
0.000376581
0.000384241
0.000378008
1.59494e-05
8.64071e-05
0.000165568
0.00023436
0.000287816
0.000324835
0.000348332
0.000364833
0.000378903
0.000388195
0.00038368
1.64071e-05
8.82278e-05
0.000168673
0.000237786
0.000291196
0.000328128
0.00035158
0.000368164
0.00038282
0.000393201
0.000388681
1.67791e-05
8.95818e-05
0.000171084
0.00024073
0.000294395
0.00033156
0.00035533
0.00037236
0.000387713
0.000398961
0.000395626
1.71016e-05
9.0932e-05
0.000173276
0.000243459
0.000297476
0.000335047
0.000359375
0.000377076
0.000393123
0.000404783
0.000400649
1.72946e-05
9.18438e-05
0.000174904
0.000245727
0.000300295
0.000338524
0.00036366
0.000382205
0.000398946
0.000410937
0.000407123
1.73354e-05
9.16097e-05
0.000175384
0.00024709
0.000302602
0.000341911
0.000368197
0.000387778
0.000405272
0.000417777
0.00041542
1.72297e-05
9.10764e-05
0.00017516
0.000247757
0.000304433
0.000345168
0.000372946
0.000393802
0.000412195
0.000425231
0.000422346
1.69592e-05
8.96507e-05
0.00017369
0.000247316
0.000305531
0.000348169
0.000377919
0.000400394
0.000419906
0.000433557
0.000430476
1.65254e-05
8.63822e-05
0.000169821
0.000244532
0.000304696
0.000349982
0.000382551
0.000407383
0.000428472
0.000442798
0.000439599
1.58452e-05
8.19935e-05
0.00016382
0.000239295
0.000301457
0.000349473
0.000384837
0.000411885
0.00043484
0.00045089
0.000447916
1.4905e-05
7.60619e-05
0.000154935
0.000230533
0.000294598
0.000345451
0.000383541
0.000412066
0.000435282
0.000451723
0.000449724
1.36787e-05
6.81549e-05
0.000142135
0.000216699
0.000282346
0.000336131
0.000376903
0.000406047
0.000427395
0.000441667
0.000440765
1.2123e-05
5.78406e-05
0.000124304
0.000195712
0.000262033
0.000318744
0.000362538
0.000392267
0.000410305
0.000419102
0.000416316
1.02307e-05
4.60156e-05
0.000100594
0.000164557
0.000229312
0.000288661
0.000336541
0.000368567
0.000384507
0.00038697
0.000378089
7.91431e-06
2.77925e-05
6.42746e-05
0.000115771
0.000176249
0.000237799
0.000291411
0.00032934
0.000348117
0.000348872
0.000335265
6.47753e-06
1.27948e-05
3.17509e-05
6.69694e-05
0.000113815
0.000166722
0.000218309
0.000260212
0.000286113
0.000293749
0.000285359
1.19642e-05
6.27884e-05
0.000134956
0.000215878
0.000286655
0.000346477
0.000404862
0.000468425
0.000517858
0.000542929
0.00053616
9.67199e-06
2.82769e-05
5.85849e-05
9.74811e-05
0.000151666
0.0002138
0.000284267
0.000379369
0.000485804
0.000584119
0.000613003
1.11265e-05
3.09568e-05
6.25821e-05
8.61762e-05
0.000105105
0.000137676
0.000181961
0.000237566
0.000338709
0.000511832
0.000653761
1.3563e-05
3.82708e-05
8.20773e-05
0.000123397
0.000136578
0.000134257
0.000145408
0.000171019
0.000215036
0.000316349
0.000570504
1.63914e-05
4.80458e-05
0.000103432
0.000166611
0.000208866
0.000200066
0.000175423
0.000163432
0.000170478
0.000206089
0.000331365
1.91924e-05
5.98786e-05
0.000126659
0.000205743
0.000275243
0.000306132
0.00026785
0.000216768
0.000181584
0.000173448
0.000213518
2.18649e-05
7.33672e-05
0.000151608
0.000240495
0.000325619
0.000388756
0.00038776
0.000319542
0.000243295
0.000190779
0.000178579
2.44547e-05
8.79392e-05
0.000177329
0.000270887
0.000360291
0.000440467
0.000486297
0.000440538
0.000342176
0.000247123
0.000189658
2.68084e-05
0.000103727
0.000203659
0.000297924
0.000383094
0.000464144
0.000532469
0.000539434
0.000449943
0.000327311
0.000230095
2.88813e-05
0.000120517
0.000229618
0.000321703
0.00039772
0.000468869
0.000541954
0.000592779
0.000540806
0.000412194
0.000285215
3.06441e-05
0.000137417
0.000253713
0.000342059
0.000407039
0.000462908
0.000528152
0.000598913
0.000597601
0.000483778
0.000341194
3.2207e-05
0.000152468
0.000275177
0.000358387
0.000412318
0.000452605
0.000504402
0.000578599
0.00062297
0.000533003
0.000387333
3.35319e-05
0.000165793
0.00029212
0.000370257
0.000414094
0.000441708
0.000479373
0.000542129
0.000610767
0.000560435
0.000414686
3.45487e-05
0.000178432
0.00030682
0.000379096
0.000413014
0.00042975
0.000455015
0.000499929
0.00055493
0.000565644
0.000420941
3.51659e-05
0.000190238
0.000319926
0.000385875
0.000409531
0.000414839
0.000426604
0.000453547
0.000487967
0.000503461
0.000428912
3.5372e-05
0.000201764
0.00033255
0.000392029
0.000405457
0.000399426
0.000397857
0.000408125
0.000424451
0.000433565
0.00041134
3.51392e-05
0.000213183
0.000345551
0.000399127
0.000403242
0.000387508
0.000375492
0.00037421
0.000379462
0.00038382
0.000377145
3.43618e-05
0.000224589
0.000360022
0.000409491
0.000406269
0.000383371
0.000364861
0.000358018
0.000358982
0.000360994
0.000356408
3.29434e-05
0.000238172
0.000379295
0.000428299
0.000420219
0.000390523
0.000364966
0.000352736
0.000350786
0.000352508
0.000354088
2.91053e-05
0.000230692
0.00036651
0.000419022
0.000414487
0.00038008
0.000342678
0.000317453
0.000304719
0.000295472
0.000302502
2.34854e-05
0.000199129
0.000328234
0.000390974
0.000400137
0.000371064
0.000324224
0.00027616
0.000221192
0.000192068
0.000178284
1.76018e-05
0.000154977
0.000270991
0.000337682
0.000359543
0.000339678
0.000290661
0.000220962
0.000169939
0.000142553
0.000125993
1.21513e-05
0.000112977
0.00019228
0.000239264
0.000249222
0.00021769
0.000168818
0.000136276
0.000122027
0.000119094
0.000120101
6.30284e-06
3.34956e-05
5.68414e-05
7.03166e-05
7.20381e-05
7.78169e-05
9.18472e-05
0.000113492
0.000138165
0.000158966
0.000170358
1.53449e-05
1.4332e-05
1.43551e-05
1.4466e-05
1.45936e-05
1.45795e-05
1.42836e-05
1.33579e-05
1.13395e-05
0.000100234
0.000101646
9.1734e-05
8.17004e-05
7.16061e-05
5.82601e-05
4.19472e-05
3.03856e-05
2.37216e-05
0.000157216
0.000155119
0.000144248
0.000133284
0.000120772
0.000106072
8.0304e-05
5.83164e-05
4.34474e-05
0.000182646
0.000178997
0.000170761
0.000162217
0.000150264
0.000137303
0.0001087
8.15441e-05
6.28783e-05
1.54923e-05
1.51919e-05
1.46217e-05
1.34291e-05
1.05762e-05
7.27546e-06
6.55322e-06
6.10202e-06
7.7682e-06
9.16644e-05
8.02015e-05
5.76739e-05
3.87243e-05
2.83251e-05
2.50768e-05
2.73314e-05
2.30446e-05
2.14454e-05
0.000147274
0.000134646
0.000106596
7.46178e-05
5.05582e-05
3.89874e-05
4.22952e-05
3.76066e-05
3.62671e-05
0.000175732
0.000168343
0.000141414
0.000104002
7.13348e-05
5.41917e-05
5.92869e-05
5.60646e-05
5.3861e-05
0.00019592
0.000229723
0.000229761
0.000120657
0.000356676
0.000229288
9.83403e-05
0.000229522
0.000229261
0.000233225
0.000351775
0.000229535
0.000137176
0.000210965
0.00012396
0.000228711
0.000198136
0.000121569
0.000228706
0.000228683
0.000229629
2.94006e-05
0.000229945
0.000196651
0.000229314
0.000211151
0.000143387
9.61058e-05
0.0002712
0.000558907
0.000188947
0.00023557
0.000158402
0.000229474
0.000240695
0.000229689
0.000185156
0.000229291
0.00013972
0.000229268
1.55247e-05
0.000229503
0.000148351
0.000229919
0.000461821
5.28282e-05
7.99053e-05
0.000105536
0.00023942
0.000229169
0.000549346
0.000229302
0.000334037
0.000147397
0.00022912
0.00022943
3.00628e-05
0.000229331
0.000263029
0.000270644
2.80998e-05
0.000336824
0.000452346
0.000319506
2.2114e-05
0.000228663
0.000646982
0.000231479
0.000229719
0.000232733
0.000184952
0.000231814
5.70319e-05
0.000236482
0.000430276
0.000230635
2.37159e-05
0.000229683
0.000166184
0.000442816
0.000229225
0.00028941
0.000229301
0.000229789
0.00024784
5.86133e-05
0.000297244
0.000318072
5.01305e-05
0.000144867
0.000229508
0.000229395
1.76356e-05
0.000232146
0.000431465
0.000156538
0.000356898
0.000235832
4.78849e-05
0.000233278
0.000251209
9.90691e-05
0.000229665
0.00023629
6.87184e-05
0.000229501
0.0001802
0.000229866
0.000161777
0.000235065
0.000229501
0.000229542
0.000230294
0.000101828
9.49173e-05
0.000229007
0.000229162
0.000228827
0.000229515
0.000228981
9.74279e-05
0.000236092
0.000241959
0.0002045
4.67007e-05
0.000199564
0.000159798
0.000172175
0.00020658
0.000190953
0.000229464
0.000266343
0.000101203
0.000230911
0.00022975
0.000232669
2.13191e-05
0.000223413
0.000542684
0.000244074
0.000151433
0.000231393
0.000278396
0.000167718
0.000229109
3.67137e-05
0.000114891
0.000231068
0.000234164
0.000229462
0.000229358
0.000229367
3.50552e-05
0.000235203
0.000109264
7.983e-05
6.1852e-05
3.10812e-05
0.000162012
0.000228762
0.000215159
4.92686e-05
0.000231422
0.000229028
0.000703844
0.00011118
6.51571e-05
0.000251262
0.000236614
2.20481e-05
0.000186347
0.000151981
0.000237787
0.000229483
0.000234859
0.000220073
0.000153721
3.47306e-05
0.000455002
0.000199459
0.000230616
2.44555e-05
0.000229921
0.00013164
0.000229417
0.000169493
0.000229956
0.000228818
0.000229687
0.000226323
0.000161314
0.000217771
0.000228575
1.56975e-05
0.000229741
0.00022888
0.000229243
4.75358e-05
0.000185385
0.00023
3.47511e-05
0.000229385
0.000147586
0.000178764
0.000229794
0.000315876
0.000231807
0.000207088
0.000229115
0.00022869
0.000146274
0.000228983
0.000174983
0.000238525
0.000229407
0.000393649
0.000229365
5.62428e-05
0.000229721
0.000122072
9.99211e-05
9.61083e-05
0.00033743
8.82175e-05
0.000202819
0.000229351
0.000107662
0.000118492
0.000174629
0.000394665
3.32309e-05
0.000228555
0.00022953
0.000236367
3.50924e-05
0.000310156
0.000457746
0.000229869
0.000229576
0.000229566
5.69354e-05
0.000361084
0.000236395
1.73558e-05
0.000236361
4.96981e-05
0.00022942
0.000169352
0.000175577
0.000293344
0.000170293
0.000150016
0.00023984
0.000228763
0.000233499
0.000229234
0.000229465
0.000229222
5.08567e-05
0.000230174
0.000123247
0.000196655
0.000228172
0.000229606
0.000229487
8.1e-05
0.000231803
0.000238253
0.000159346
0.000177992
0.000193524
0.000229009
0.000229437
8.09698e-05
0.00022904
0.000228832
0.000203666
0.000229226
0.000238154
6.40233e-05
0.000232733
0.000229664
0.000234647
0.000412094
0.000233128
0.000228975
0.000328928
0.000229632
0.000237691
0.000145217
0.000229737
0.000106229
0.000250973
0.000140414
0.000229999
0.000229118
0.000235988
0.000229589
0.000240211
0.000202444
0.000229501
0.000103568
0.000242178
0.000555384
0.000229415
0.000235076
0.000229679
0.000115708
2.46359e-05
0.000228938
5.8744e-05
0.000229548
0.000233665
0.000160863
2.72604e-05
0.000231522
0.000192753
0.00010239
0.00022866
0.000233928
0.000229721
0.00014544
0.00022888
0.000188751
0.00019731
0.000237742
0.000229249
0.000217638
0.000228252
0.000390574
0.000234919
0.000446099
2.18794e-05
0.000229881
0.000115355
0.000252207
6.35587e-05
0.000229644
0.000229255
0.000238668
5.07753e-05
0.000152022
0.000229501
0.000105775
0.000182157
0.000114961
0.000156226
0.000228969
0.000166835
0.000188273
6.61324e-05
0.000235458
0.000178071
0.000229459
0.000105889
0.000230036
9.56393e-05
0.000206609
0.00022992
0.000385034
0.000135216
0.000214542
0.000229398
0.00022936
0.000229453
5.8095e-05
0.000160727
8.51368e-05
7.81306e-05
0.000242049
0.000229207
0.000112266
0.000222292
0.000198671
0.000110385
0.000229714
0.000151686
0.000240615
0.000228956
0.000229354
0.000249713
0.000228856
3.71312e-05
0.000229352
0.000217636
0.000634942
9.28523e-05
0.000200954
0.00037083
5.30328e-05
0.000229397
4.91563e-05
0.000188018
0.000243711
0.00061494
2.15679e-05
0.000229376
0.000229046
0.000229758
7.90522e-05
5.09913e-05
0.000228952
0.000229934
0.00014705
0.000129816
1.9641e-05
0.000122128
0.000123435
0.00022936
0.00014358
0.000243777
0.000228688
0.000159073
0.000164702
3.53871e-05
0.000233571
0.000158882
0.00023916
0.00018277
5.52742e-05
0.000244674
0.000147788
0.000100553
0.00017712
0.000227036
0.000234523
0.000235531
7.4984e-05
0.000220547
3.00807e-05
0.000229325
3.72506e-05
0.000208686
0.000228518
0.000231108
8.59705e-05
0.00025662
0.000494301
0.000204585
0.000230034
0.000236273
0.00029284
0.000204262
9.50585e-05
0.000234356
9.57777e-05
0.000318435
2.6918e-05
0.000228765
3.96819e-05
0.000229427
0.000229739
0.00022932
5.66174e-05
9.52793e-05
7.65899e-05
0.000188431
3.23561e-05
8.19391e-05
0.000229673
0.00022878
0.000165103
0.000178062
0.000233517
0.000241869
4.11019e-05
4.4783e-05
2.96836e-05
2.93526e-05
0.000234526
0.000211553
7.79479e-05
0.000229756
2.93598e-05
0.000237829
0.000229627
0.000228964
8.05653e-05
3.6087e-05
0.000229709
0.000229131
0.000229651
0.000381387
2.31255e-05
0.000229866
4.05734e-05
0.000444351
0.00015641
8.42796e-05
0.000228713
3.96638e-05
0.000228887
0.000237067
0.0002293
0.000202231
0.00014355
0.000228614
0.00018635
0.000168561
0.000237449
0.000226666
0.000217856
0.000229456
0.000229473
0.00022004
9.06084e-05
6.8601e-05
0.000235241
8.64673e-05
0.000229757
0.000396688
0.000104495
4.99197e-05
0.000114873
0.000250502
0.000528456
6.90678e-05
0.00018606
0.000229212
0.000182027
0.000228741
0.000229659
0.000229128
0.000229608
0.000235038
0.000247089
0.000229522
0.000228745
0.000140863
0.000229492
3.98391e-05
0.000245733
0.000121483
0.000171946
5.25718e-05
0.000229994
0.000229233
0.000229812
1.65344e-05
3.61962e-05
0.000229379
0.000229321
0.000204721
0.000229739
0.000165369
0.000229695
0.000299704
0.000236885
3.38714e-05
0.000142115
0.000129728
6.10781e-05
0.000423989
0.000229487
0.000231859
0.000234004
0.000229704
8.57759e-05
2.65869e-05
0.000223843
0.000174593
0.000151603
0.000125229
0.000229313
0.000229498
0.000229674
0.00031939
0.00050084
8.47244e-05
0.000229469
0.00022908
0.000400668
0.000230527
0.000161932
0.000203588
0.000120359
0.000284779
0.000229297
8.89611e-05
0.000229191
7.23401e-05
0.000229317
0.000443193
0.000148951
0.000234547
2.91239e-05
0.00010745
0.00022982
0.000229978
0.000426425
0.000228915
0.000180881
0.000149147
7.5551e-05
0.00033503
5.13391e-05
0.000182465
0.000230588
0.000229504
0.000229418
0.000153921
8.24992e-05
0.00011037
0.000228645
0.000229351
0.000106072
0.000230315
0.000233864
0.000239372
0.000232079
0.000174067
9.46987e-05
7.77801e-05
0.000159745
0.000233328
0.000231666
0.000228757
0.000122939
0.000230516
0.000229505
0.000181595
0.000192062
0.000228941
0.000228848
2.0975e-05
0.000229806
0.000228757
0.000147609
0.000229712
0.000235359
0.000137873
0.000142646
0.000157511
0.000203082
0.000156969
8.08748e-05
0.00011646
7.37668e-05
0.000101842
0.000175071
6.01361e-05
5.13875e-05
0.000125965
0.00022976
0.000230552
0.000185424
0.000229816
0.000229844
0.000240701
0.000208769
0.000147272
0.000167514
0.000190113
0.000239697
0.000229174
0.000199348
0.000229571
0.000228979
0.000236461
9.30171e-05
0.000230825
0.000236571
0.000231732
0.000229663
0.000196184
6.23406e-05
0.000385849
0.000230806
0.000231116
0.000189736
0.000157025
0.000233248
0.000198384
0.000230565
0.000424668
0.000119418
0.000229251
8.69023e-05
0.000229915
0.00016507
0.00022325
0.000172474
0.000148244
0.000213383
0.000246459
0.000229822
0.000100483
0.000177879
5.2059e-05
0.000169088
0.000228933
0.00023341
0.000229808
0.000159538
0.000230286
4.67877e-05
0.000229506
0.000229374
0.000228963
0.000142524
7.45872e-05
0.000229606
0.000128995
0.000229192
0.000123041
0.000162182
0.000231104
0.000169469
1.92204e-05
0.000131217
0.000236882
0.000208692
0.000166009
0.000105697
0.000170487
9.89051e-05
0.000229263
0.000200095
0.000229529
0.000234632
5.33722e-05
0.000197881
3.93476e-05
0.000210843
0.000230303
0.000235408
0.000229002
5.6184e-05
0.000229663
0.000200401
0.00013225
0.000305251
0.000233886
0.000138044
0.000215197
0.000336774
0.000236936
0.000159284
3.67625e-05
0.000114221
0.000229534
0.000214719
0.000160894
0.000229535
4.49979e-05
0.000118584
0.000236746
0.000416798
0.000229129
0.000235794
0.000235007
0.0001288
0.000233339
0.000195167
0.000229593
0.000165881
0.000232615
0.00014386
9.01825e-05
0.000179606
0.000169651
0.000228836
0.000229201
5.8389e-05
0.00022919
0.000205707
0.000187018
9.80178e-05
0.000238784
3.1368e-05
0.000252583
0.000101701
0.000143104
0.000250131
0.000228996
0.000247967
0.000229129
0.000183222
2.22267e-05
0.000230043
0.00022953
0.000251551
0.000449711
0.000161073
0.000183043
0.000229586
0.000197326
0.000248764
0.000229536
0.000229664
0.000229778
0.000229523
0.00023602
0.000157776
4.96471e-05
0.000106557