/*--------------------------------*- C++ -*----------------------------------*\
| =========                 |                                                 |
| \\      /  F ield         | OpenFOAM: The Open Source CFD Toolbox           |
|  \\    /   O peration     | Version:  3.0.1                                 |
|   \\  /    A nd           | Web:      www.OpenFOAM.org                      |
|    \\/     M anipulation  |                                                 |
\*---------------------------------------------------------------------------*/
FoamFile
{
    version     2.0;
    format      ascii;
    class       volScalarField;
    location    "0.716417";
    object      p;
}
// * * * * * * * * * * * * * * * * * * * * * * * * * * * * * * * * * * * * * //

dimensions      [0 2 -2 0 0 0 0];

internalField   nonuniform List<scalar> 
21246
(
15.9626
15.1492
13.4086
11.4046
9.33737
7.55663
6.10812
4.94606
3.99941
3.25363
2.8029
-9.24192
0.90804
3.83774
5.87469
6.09588
5.57878
4.78264
3.99539
3.27477
2.67469
2.30437
-21.956
-11.4296
-7.80722
-2.46801
0.29183
1.93195
2.31003
2.35969
2.14394
1.87033
1.6834
-24.1958
-17.6784
-15.5411
-9.4482
-5.88662
-2.73068
-0.9067
0.106179
0.57872
0.774473
0.873062
-22.2873
-18.8445
-18.1565
-13.1743
-10.2851
-6.63651
-4.1322
-2.33571
-1.20727
-0.506682
-0.0322033
-19.7507
-17.7121
-17.6873
-14.0971
-12.3284
-8.95169
-6.55433
-4.38347
-2.869
-1.78052
-0.99533
-17.2302
-15.9393
-16.0905
-13.4713
-12.5892
-9.76861
-7.87099
-5.72415
-4.12347
-2.82608
-1.82762
-14.6772
-13.9547
-14.165
-12.2078
-11.8425
-9.57356
-8.23509
-6.33034
-4.84166
-3.5281
-2.4626
-12.3769
-12.0681
-12.1479
-10.7577
-10.5914
-8.83195
-7.92545
-6.32676
-5.07197
-3.85016
-2.80728
-10.572
-10.3179
-10.2397
-9.30849
-9.15163
-7.85116
-7.20723
-5.92288
-4.92177
-3.85297
-2.90429
-8.78245
-8.58759
-8.50511
-7.86476
-7.71665
-6.76418
-6.29229
-5.28802
-4.51087
-3.6217
-2.82682
-6.97383
-6.86426
-6.85299
-6.42586
-6.334
-5.64429
-5.30757
-4.53824
-3.94453
-3.22417
-2.57709
-5.5367
-5.40796
-5.40209
-5.10848
-5.05668
-4.56404
-4.33021
-3.75301
-3.30548
-2.73531
-2.21429
-4.44559
-4.2561
-4.22202
-3.99271
-3.94515
-3.5858
-3.41752
-2.98881
-2.65331
-2.2145
-1.82082
-3.44428
-3.23593
-3.20918
-3.03301
-2.99065
-2.72483
-2.59613
-2.27659
-2.02295
-1.6895
-1.38947
-2.65721
-2.42048
-2.38707
-2.24135
-2.1934
-1.98719
-1.87493
-1.62927
-1.43154
-1.18189
-0.965027
-2.09441
-1.82774
-1.77253
-1.63291
-1.55919
-1.37579
-1.25363
-1.04818
-0.8845
-0.699952
-0.546945
-1.64512
-1.36604
-1.29529
-1.1556
-1.05154
-0.864872
-0.712841
-0.520865
-0.37683
-0.24647
-0.157044
-1.30655
-1.02377
-0.928023
-0.785513
-0.637521
-0.422144
-0.225562
-0.0298499
0.0992116
0.178969
0.200716
-1.05085
-0.770377
-0.647853
-0.480536
-0.275633
-0.010439
0.237349
0.439769
0.548056
0.57903
0.54981
-0.834252
-0.554874
-0.403161
-0.19314
0.0842486
0.413969
0.700851
0.890054
0.961937
0.945662
0.883251
-0.593195
-0.343817
-0.135851
0.144938
0.51029
0.886525
1.16089
1.28503
1.30175
1.23614
1.13255
-0.481964
-0.0731742
0.215725
0.613712
1.05494
1.4085
1.59846
1.62952
1.58062
1.51098
1.60559
0.462674
0.663772
1.07673
1.50592
1.7448
1.83022
1.77721
1.62963
1.45086
1.27893
1.36384
27.5813
22.7791
17.9308
13.8168
10.8015
8.63194
6.95782
5.61002
4.50991
3.64335
3.05855
15.1741
17.433
16.8579
15.2243
12.5384
10.0157
7.86935
6.17384
4.87293
3.91225
3.28527
2.95301
8.88449
10.7589
11.7611
11.1066
9.57943
7.90303
6.33568
5.02351
4.03419
3.37217
-4.89866
0.96092
3.39893
6.25722
7.51217
7.54999
6.80049
5.75558
4.69311
3.81221
3.22579
-8.79931
-4.33535
-2.43382
0.949454
3.06906
4.3844
4.68531
4.42833
3.87121
3.2875
2.85345
-10.4676
-7.17737
-5.99649
-2.89424
-0.768863
1.13288
2.18168
2.63989
2.64311
2.43773
2.22219
-11.0706
-8.50298
-7.85665
-5.19311
-3.51353
-1.45997
-0.109048
0.812417
1.27265
1.43664
1.4702
-11.0754
-9.00718
-8.76918
-6.36321
-5.2663
-3.25452
-1.90166
-0.763772
-0.0101173
0.447849
0.712189
-10.9984
-9.14615
-9.21069
-6.97495
-6.17743
-4.45107
-3.17439
-1.97382
-1.07257
-0.426691
0.0226494
-10.9366
-9.34495
-9.17126
-7.47696
-6.63478
-5.15636
-4.00085
-2.82372
-1.87381
-1.12202
-0.561388
-10.7954
-9.55817
-9.06186
-7.70963
-6.8731
-5.54433
-4.49214
-3.36786
-2.42436
-1.62558
-0.993507
-10.44
-9.41675
-8.89485
-7.70642
-6.91706
-5.70152
-4.73254
-3.66539
-2.75534
-1.9509
-1.30281
-10.0906
-9.11701
-8.62144
-7.52784
-6.78916
-5.66132
-4.76579
-3.75573
-2.89447
-2.11111
-1.47582
-9.7817
-8.76102
-8.27156
-7.22545
-6.52194
-5.46218
-4.62553
-3.67292
-2.86647
-2.12367
-1.51079
-9.23346
-8.26333
-7.81899
-6.81905
-6.13804
-5.13739
-4.34223
-3.44727
-2.69507
-2.00339
-1.42986
-8.64136
-7.6951
-7.27889
-6.31679
-5.64578
-4.69807
-3.93255
-3.09657
-2.4008
-1.77204
-1.25247
-8.05262
-7.08872
-6.66678
-5.72865
-5.04862
-4.14729
-3.40561
-2.63395
-1.99987
-1.44761
-1.00427
-7.36819
-6.39506
-5.95914
-5.04393
-4.34116
-3.4829
-2.76757
-2.07113
-1.50925
-1.04812
-0.682319
-6.58267
-5.6003
-5.13639
-4.24311
-3.51171
-2.69955
-2.02465
-1.41978
-0.952223
-0.599294
-0.337121
-5.70889
-4.69816
-4.17965
-3.30459
-2.55038
-1.79962
-1.19432
-0.703161
-0.355655
-0.124925
0.0254735
-4.707
-3.64197
-3.04846
-2.20406
-1.46005
-0.804491
-0.309671
0.0389406
0.24637
0.348354
0.384311
-3.49634
-2.35059
-1.69538
-0.937173
-0.274535
0.230465
0.575384
0.763025
0.825739
0.806299
0.742835
-2.06736
-0.835122
-0.224068
0.329034
0.818133
1.1604
1.3363
1.37207
1.30606
1.18314
1.06462
-0.0499241
0.919347
1.29224
1.5849
1.85328
2.00501
2.01364
1.95736
1.8248
1.61241
1.32491
-5.09992
-1.04105
0.426379
0.979522
1.12661
1.09661
0.98893
0.850329
0.693201
0.538234
0.465547
-16.5817
-8.87166
-5.73252
-3.41929
-1.76177
-0.816406
-0.328249
-0.0971924
-0.0113969
-0.00237852
0.0132852
-15.5983
-11.9734
-9.96463
-7.39095
-4.99189
-3.22139
-2.03736
-1.30187
-0.874608
-0.630662
-0.451597
-11.5175
-10.9661
-10.3956
-8.8166
-6.89998
-5.1079
-3.63254
-2.53932
-1.80016
-1.31948
-0.982031
-8.62646
-8.79484
-8.83878
-8.22444
-7.18128
-5.90278
-4.60738
-3.48137
-2.60173
-1.96473
-1.47508
-6.87474
-7.09571
-7.15795
-6.99528
-6.54572
-5.80979
-4.89645
-3.9659
-3.13504
-2.46323
-1.90882
-5.90033
-5.95042
-5.97724
-5.92543
-5.73864
-5.3369
-4.75155
-4.06892
-3.38085
-2.76665
-2.22096
-5.4304
-5.28695
-5.2552
-5.20085
-5.0726
-4.83082
-4.44777
-3.95842
-3.41766
-2.89366
-2.39177
-5.25167
-4.9768
-4.901
-4.78096
-4.63597
-4.43589
-4.14879
-3.77474
-3.34099
-2.89756
-2.46103
-5.14128
-4.8221
-4.72043
-4.53933
-4.36572
-4.1716
-3.91846
-3.59778
-3.22285
-2.82869
-2.43955
-5.05357
-4.73285
-4.58256
-4.38482
-4.19957
-4.00255
-3.75893
-3.4561
-3.10168
-2.7236
-2.35348
-5.01894
-4.69687
-4.52448
-4.31199
-4.11244
-3.90562
-3.65901
-3.3534
-2.99249
-2.60186
-2.2167
-5.01927
-4.69868
-4.52221
-4.30101
-4.09566
-3.87433
-3.61449
-3.28999
-2.901
-2.47554
-2.05626
-5.03229
-4.71776
-4.54581
-4.32942
-4.11075
-3.88398
-3.609
-3.25668
-2.82515
-2.3465
-1.87034
-5.04313
-4.73608
-4.56894
-4.35367
-4.13083
-3.89574
-3.60739
-3.22789
-2.75164
-2.21505
-1.66914
-5.03684
-4.73786
-4.57449
-4.36011
-4.13284
-3.88923
-3.58793
-3.18566
-2.67152
-2.08498
-1.4866
-5.00623
-4.71664
-4.55452
-4.34193
-4.10802
-3.85268
-3.54104
-3.1245
-2.58775
-1.96585
-1.31889
-4.9497
-4.66941
-4.50848
-4.29742
-4.05765
-3.78851
-3.46989
-3.04976
-2.51071
-1.88711
-1.23265
-4.86765
-4.59915
-4.44011
-4.23078
-3.98922
-3.71519
-3.39402
-2.98916
-2.47746
-1.88599
-1.26516
-4.76345
-4.5129
-4.35786
-4.1535
-3.91485
-3.64719
-3.3408
-2.97761
-2.52914
-2.01105
-1.439
-4.64351
-4.42028
-4.27328
-4.0775
-3.84659
-3.59631
-3.33261
-3.04242
-2.70334
-2.30651
-1.8309
-4.52455
-4.33864
-4.19845
-4.00235
-3.78226
-3.56674
-3.3753
-3.2031
-3.0228
-2.79525
-2.46609
-4.44603
-4.27979
-4.09009
-3.88248
-3.6915
-3.54957
-3.47803
-3.46673
-3.47426
-3.44397
-3.32645
-4.4115
-3.84812
-3.75517
-3.6594
-3.59128
-3.60563
-3.70725
-3.86201
-4.01371
-4.09614
-4.03098
13.0806
8.68949
5.84497
4.18156
3.16133
2.49322
2.01274
1.62962
1.29901
1.02198
0.839446
12.3498
11.5138
9.45021
7.39033
5.6412
4.27978
3.27495
2.53077
1.95216
1.49683
1.2111
8.73501
9.48224
9.18032
8.17413
6.78544
5.41129
4.22791
3.27209
2.50797
1.90216
1.49271
5.60801
6.94651
7.29945
7.17912
6.57225
5.65399
4.6257
3.66477
2.83623
2.15343
1.71331
3.31951
4.66685
5.23349
5.61621
5.58613
5.15255
4.46788
3.69734
2.95031
2.29055
1.82909
1.65224
2.82188
3.34917
3.91906
4.23326
4.22229
3.91388
3.41055
2.81709
2.24407
1.80908
0.435601
1.42116
1.83667
2.42286
2.85624
3.07982
3.05911
2.82066
2.43208
1.99749
1.63357
-0.421115
0.389142
0.680127
1.22365
1.65814
1.97601
2.12728
2.07928
1.88956
1.60321
1.32882
-1.11284
-0.397825
-0.227974
0.285215
0.67142
1.00957
1.23795
1.32897
1.28415
1.13945
0.983339
-1.71964
-1.04996
-0.964834
-0.47025
-0.139974
0.192134
0.452866
0.618177
0.674246
0.640159
0.582885
-2.19881
-1.72472
-1.50835
-1.12557
-0.811991
-0.49538
-0.227865
-0.0254524
0.09566
0.139686
0.167701
-2.56962
-2.18721
-1.97876
-1.65404
-1.36698
-1.07403
-0.814063
-0.596518
-0.435871
-0.336385
-0.248692
-2.89733
-2.55283
-2.36809
-2.08135
-1.82297
-1.55855
-1.31617
-1.10033
-0.920637
-0.783801
-0.643632
-3.19797
-2.86355
-2.68983
-2.43125
-2.19876
-1.96406
-1.74633
-1.54638
-1.36736
-1.21585
-1.05777
-3.37964
-3.09225
-2.9422
-2.7147
-2.50832
-2.30409
-2.11546
-1.94178
-1.78074
-1.63321
-1.47922
-3.52262
-3.2748
-3.14258
-2.94442
-2.76399
-2.591
-2.43516
-2.29574
-2.16646
-2.03822
-1.89892
-3.64925
-3.43
-3.30774
-3.13477
-2.9788
-2.83718
-2.71768
-2.6202
-2.53556
-2.44415
-2.33878
-3.73604
-3.5509
-3.44145
-3.29374
-3.16235
-3.05251
-2.97281
-2.92474
-2.89666
-2.85885
-2.78178
-3.79399
-3.6454
-3.55076
-3.42788
-3.32096
-3.24292
-3.20581
-3.21368
-3.25304
-3.28561
-3.27764
-3.83676
-3.72327
-3.64293
-3.54182
-3.45698
-3.40894
-3.41509
-3.48152
-3.58952
-3.68384
-3.66435
-3.86769
-3.78569
-3.71798
-3.63281
-3.5653
-3.54416
-3.59236
-3.71655
-3.89195
-4.06004
-4.12188
-3.8821
-3.82611
-3.7645
-3.68717
-3.63256
-3.63589
-3.72266
-3.89639
-4.12627
-4.35134
-4.49507
-3.9016
-3.83539
-3.7639
-3.68973
-3.64915
-3.67631
-3.79322
-3.99455
-4.23889
-4.4499
-4.49461
-3.75142
-3.70828
-3.65413
-3.61665
-3.61317
-3.66856
-3.7969
-3.98445
-4.19251
-4.36092
-4.39303
1.28032
0.468789
0.402754
0.532986
0.744156
0.991799
1.17867
1.29107
1.34129
1.35649
1.41421
7.34894
5.75513
4.44544
3.58323
3.04637
2.72259
2.51555
2.35723
2.21176
2.08065
2.0107
7.79406
7.35635
6.5384
5.69181
4.92834
4.29452
3.78977
3.38556
3.04677
2.75563
2.55836
7.19786
7.20578
6.92097
6.46802
5.92043
5.33199
4.75413
4.22339
3.75539
3.34972
3.06757
6.71225
6.83907
6.77226
6.58712
6.26559
5.82548
5.32534
4.81447
4.32711
3.89284
3.5683
6.35199
6.5382
6.54284
6.48098
6.31947
6.0474
5.68447
5.25452
4.79202
4.33945
3.96643
6.02766
6.22428
6.26037
6.28895
6.24397
6.09595
5.8382
5.48528
5.06662
4.62776
4.2392
5.73605
5.88408
5.94271
5.99607
6.00553
5.93848
5.77338
5.50773
5.15781
4.76836
4.42318
5.46179
5.587
5.63959
5.69349
5.72055
5.69309
5.58745
5.39137
5.10789
4.77004
4.45895
5.19159
5.31025
5.35696
5.4061
5.43555
5.42352
5.34945
5.19902
4.96786
4.67707
4.39702
4.95806
5.06041
5.09534
5.13478
5.15854
5.14901
5.08913
4.96561
4.77126
4.52111
4.28483
4.77727
4.84552
4.85826
4.88014
4.8904
4.87406
4.81674
4.70691
4.53715
4.31819
4.10599
4.58491
4.63009
4.62643
4.63103
4.62477
4.59613
4.5337
4.4285
4.27405
4.07936
3.90561
4.36316
4.39895
4.38525
4.37471
4.35146
4.30779
4.23556
4.129
3.98365
3.80591
3.65748
4.17797
4.18007
4.14159
4.10822
4.06339
4.00092
3.91513
3.80365
3.66527
3.50458
3.37282
3.96544
3.93661
3.87527
3.81772
3.74841
3.66399
3.56212
3.44454
3.31382
3.17294
3.06706
3.6949
3.64591
3.56809
3.48676
3.39084
3.28225
3.16388
3.04264
2.92505
2.8117
2.7371
3.41854
3.32975
3.22109
3.10538
2.97549
2.83942
2.70671
2.58975
2.4974
2.42642
2.39864
3.10221
2.95967
2.80956
2.64815
2.47602
2.31158
2.17383
2.07888
2.03179
2.01938
2.0513
2.70585
2.49661
2.2965
2.07915
1.85995
1.67413
1.5523
1.50865
1.53552
1.60194
1.69405
2.19761
1.90135
1.63415
1.34951
1.08634
0.906405
0.844665
0.89796
1.03281
1.19992
1.36753
1.60663
1.09067
0.735388
0.385558
0.117803
0.0116488
0.083638
0.289961
0.563442
0.843248
1.09268
0.182763
-0.108414
-0.524615
-0.868313
-1.02606
-0.937249
-0.645424
-0.246114
0.173717
0.558476
0.874307
1.11047
-1.27099
-1.86787
-2.1077
-2.0186
-1.65799
-1.14495
-0.594197
-0.0743082
0.380269
0.736814
-14.5351
-6.71503
-3.62739
-2.29084
-1.21006
-0.442331
0.00382387
0.308858
0.513406
0.63629
0.77331
-14.4077
-10.3194
-8.02789
-6.11321
-4.18887
-2.67704
-1.63649
-0.928018
-0.470729
-0.167869
0.0932169
-9.74986
-9.89174
-9.48133
-8.3301
-6.73758
-5.09297
-3.63955
-2.49661
-1.67554
-1.10254
-0.659464
-9.32728
-9.37405
-9.32621
-8.96646
-8.16574
-6.96456
-5.55384
-4.18786
-3.05575
-2.19389
-1.50787
-9.68517
-9.60144
-9.46681
-9.32685
-9.00886
-8.29926
-7.19248
-5.84876
-4.52535
-3.3979
-2.4651
-10.1865
-10.1305
-9.98295
-9.83731
-9.70773
-9.39198
-8.6418
-7.46406
-6.06604
-4.70795
-3.47762
-10.7992
-10.8245
-10.7488
-10.6538
-10.6218
-10.5135
-10.0634
-9.09566
-7.69824
-6.15979
-4.66786
-11.4732
-11.5932
-11.605
-11.656
-11.6946
-11.7511
-11.5437
-10.7865
-9.42315
-7.71003
-5.90762
-12.1612
-12.3804
-12.4751
-12.6707
-12.9081
-13.1274
-13.1204
-12.5476
-11.2226
-9.3473
-7.22622
-12.7766
-13.118
-13.3053
-13.6671
-14.1261
-14.5316
-14.7333
-14.324
-13.0217
-10.9769
-8.54735
-13.1682
-13.7482
-14.0046
-14.5201
-15.1602
-15.829
-16.2664
-15.9931
-14.6861
-12.4427
-9.70958
-13.5109
-14.1644
-14.4688
-15.1375
-15.9472
-16.8488
-17.4662
-17.3285
-16.0046
-13.5479
-10.5635
-13.6335
-14.2621
-14.7227
-15.443
-16.3473
-17.3806
-18.1338
-18.1317
-16.7346
-14.0674
-10.7292
-13.4573
-14.0718
-14.619
-15.3703
-16.2983
-17.3133
-18.1186
-18.1793
-16.6632
-13.884
-10.3515
-13.0157
-13.5492
-14.1067
-14.8349
-15.7167
-16.645
-17.362
-17.2217
-15.6687
-12.9157
-9.36658
-12.2342
-12.6351
-13.1379
-13.7911
-14.5737
-15.358
-15.8442
-15.454
-13.8315
-11.1412
-7.89928
-11.0671
-11.3199
-11.7338
-12.2923
-12.9514
-13.5379
-13.7322
-13.1354
-11.4424
-8.85527
-5.83618
-9.51686
-9.65151
-9.99835
-10.5057
-11.0805
-11.4856
-11.392
-10.5258
-8.77933
-6.39567
-3.77248
-7.65506
-7.79179
-8.1886
-8.7497
-9.30601
-9.55266
-9.16315
-7.99156
-6.15569
-3.99588
-1.78166
-5.84037
-6.18268
-6.77589
-7.43772
-7.95773
-8.02063
-7.305
-5.78581
-3.8347
-1.91494
-0.144767
-4.89138
-5.56073
-6.4146
-7.16766
-7.6292
-7.46037
-6.35964
-4.48484
-2.49122
-0.664631
0.924924
-4.96502
-6.08587
-7.17705
-7.94808
-8.30971
-7.5231
-5.44312
-3.40868
-1.62473
-0.145635
1.00876
-6.6993
-8.94
-8.96574
-8.33711
-7.14226
-5.56546
-3.68041
-2.11411
-0.873684
0.103661
0.804508
-12.0709
-7.60793
-6.04122
-4.94221
-3.84536
-2.77528
-1.77171
-0.94258
-0.258013
0.307324
0.706161
1.08413
0.764731
-0.0229499
-0.869092
-1.28344
-1.18166
-0.817129
-0.58544
-0.501589
0.920205
0.668529
0.0473413
-0.547037
-0.900102
-0.865514
-0.661441
-0.555937
-0.507115
0.777898
0.574721
0.0595311
-0.515905
-0.804333
-0.77907
-0.605618
-0.512273
-0.486193
0.647522
0.489173
0.0728685
-0.375154
-0.640774
-0.652642
-0.528371
-0.449946
-0.446184
0.921192
0.406182
-0.513215
-1.45737
-1.86771
-1.6379
-0.979588
-0.585438
-0.539823
0.784372
0.348242
-0.358763
-1.00645
-1.37477
-1.2423
-0.79695
-0.576176
-0.543545
0.65562
0.276358
-0.321701
-0.991789
-1.25585
-1.13701
-0.753235
-0.558383
-0.52749
0.554675
0.237786
-0.275185
-0.74579
-1.04407
-0.987794
-0.696828
-0.528065
-0.497935
1.1503
1.50471
1.51103
-0.229025
-0.320074
1.7966
-0.431068
1.74448
1.80681
1.16766
-0.332624
1.74141
-0.245324
-0.133716
1.14486
1.52534
-0.049415
-0.222343
1.52819
1.14231
1.33269
-0.32535
1.65915
-0.175434
1.47418
-0.130755
-0.239324
-0.424908
-0.472839
-0.324844
-0.0488621
0.307616
-0.093891
1.62074
0.196843
1.52478
-0.163814
1.48425
-0.0994918
1.83573
-0.0512945
1.62515
-0.263048
1.66249
-0.517943
-0.158066
-0.200604
-0.35915
0.440776
1.94793
-0.328055
1.82762
-0.0117948
-0.253969
1.94511
1.33008
-0.327308
1.82126
-0.535089
-0.188415
-0.0575645
-0.0222089
-0.35561
-0.326124
-0.0687303
1.14344
-0.280358
2.10683
1.52494
1.16608
-0.126879
1.47171
-0.23526
1.62142
-0.16496
1.48415
-0.320721
1.63636
-0.408648
-0.461704
-0.00312655
-0.32475
1.20857
1.22497
-0.0371256
-0.227073
-1.34218
-0.021123
-0.36337
-0.0387058
1.56936
1.81519
-0.0505623
1.7411
-0.441555
-0.502933
-0.161291
-0.150894
-0.334559
1.50788
0.0154076
-0.407765
1.04936
0.10138
-0.328766
1.64026
-0.00540092
1.2119
-0.00536875
0.914242
1.68776
1.62111
1.61381
-0.263041
-0.156276
1.18715
1.84802
1.65269
1.76075
0.958225
-0.272714
1.58083
0.430623
-0.0664192
-0.150699
-0.215432
0.0419716
-0.00577685
-0.00184282
-0.00821278
1.75948
-0.184787
-0.371784
1.4731
1.58626
-0.0662227
-0.282773
-0.317668
-0.275483
0.477436
-0.231891
1.26015
-0.482106
0.712285
1.84998
-0.276234
-0.165372
2.10412
1.29193
1.80167
1.9043
1.7387
-0.27253
1.58552
-0.251338
-0.232073
-0.202359
-0.35998
-0.0698321
1.2666
-0.133034
-0.341067
1.47902
1.30056
-0.256599
-0.0676356
-0.372437
1.4822
-0.177006
-0.0858933
-0.0770714
-0.0182671
-0.15544
1.10884
0.340913
0.391659
-0.00685653
-0.291927
-0.546128
0.441712
2.07613
-0.318389
1.56201
-0.314282
1.7193
-0.289603
1.9654
1.63722
1.38433
-0.410243
-0.00955679
-0.160423
1.09645
-0.0741419
1.53459
1.3675
1.81209
-0.345574
-0.00798791
1.19818
-0.284015
1.95382
-0.0468853
-0.0809784
1.57554
-0.00272749
1.75276
0.000785194
1.9039
1.1326
-0.033082
1.57746
0.949432
0.269888
1.65176
-0.118621
1.58086
-0.158551
1.99316
-0.201534
-0.0479857
-0.259826
-0.162294
-0.16258
-0.0558242
1.80777
-0.278884
-0.0403744
-0.00611852
-0.352431
-0.343537
1.07863
1.92685
1.54065
-0.276085
-1.04886
-0.163317
1.55853
1.73055
1.73263
-0.12993
-0.274201
0.081101
-0.123522
1.95493
-0.368743
1.61365
-0.123211
-0.649107
0.0422522
-0.115763
-0.0481242
-0.223885
1.26058
0.339353
1.80988
1.42075
1.48594
-0.293147
1.98451
-0.00655865
-0.148835
1.11448
1.65431
1.68438
-0.190842
1.22774
2.30432
-0.0231165
0.0592152
-0.345048
1.88092
1.95156
-0.205538
1.5699
1.64281
-0.0902803
1.62358
0.583864
-0.337075
1.48307
1.72052
-0.0042018
-0.114928
0.398308
1.49528
-1.12549
1.73314
0.476333
-0.249098
1.71006
-0.447505
1.15078
-0.172261
1.52546
1.89567
-0.17832
1.67781
0.227142
-0.111412
1.77329
-0.300947
0.294798
-0.314111
1.44948
0.863168
1.64764
0.0401612
-0.315847
1.79692
-0.35991
1.64646
0.779518
-0.073437
-0.377638
0.717185
-0.215452
-0.346808
0.915616
1.70201
1.91576
0.0818075
1.59635
-0.162856
-0.346999
1.47883
1.6279
-0.206518
1.06738
-0.00604102
2.43163
-0.348837
-0.294267
1.66561
-0.236212
-0.768871
-0.216172
1.65366
1.61614
-0.12404
-0.203053
-0.0244573
1.96666
-0.113909
-0.360572
0.0382388
-0.163922
1.62779
-0.195846
0.0615717
-0.353685
-0.142719
0.0988598
1.49353
-0.0450209
1.1973
-0.0398458
0.615027
1.65347
-0.00377807
0.0718469
-0.145738
1.57758
1.20555
1.59043
-0.36546
-0.0186999
-0.224457
-0.37183
0.59303
1.61136
-0.355055
-0.719703
-0.073391
-0.0961399
1.70894
0.334022
0.203604
1.49199
1.78873
-0.0225886
1.39047
-0.293693
1.80026
-0.157081
-0.166843
-0.282189
-0.0537846
-0.267289
-0.369055
1.73264
-0.360244
-0.0189225
1.41514
-0.170294
-0.0733025
1.65802
1.77688
1.717
-0.195059
-0.297415
1.1823
1.66701
-0.221261
-0.0145238
-0.0314648
-0.417829
0.0156244
1.9572
0.0837022
1.79014
1.5204
-0.0495149
-0.0457638
-0.246146
0.697491
-0.0120507
1.58826
-0.0278732
-0.379522
-0.29458
-0.0273395
-0.420947
0.00363792
0.364661
0.972747
1.61071
-0.0129416
-0.0857086
-0.0739776
1.60758
-0.332146
-0.164016
0.867615
0.0621496
-0.10192
-0.262855
-0.294101
-0.0714817
1.59145
0.000929041
-1.33816
-0.189749
-0.288424
1.91629
-0.194102
-0.158222
-0.287638
1.3208
-0.358485
1.73355
1.2255
1.59301
-0.381593
-0.16972
-0.362038
-0.0812385
-0.336031
-0.00738893
1.3211
1.3356
0.0466917
-0.0712806
0.299193
2.00128
-0.00692144
-0.00925514
1.18903
1.57206
2.37926
0.379856
-0.300709
1.76729
-0.0474551
1.90849
1.71299
1.86391
1.14415
-0.334062
1.94274
1.25331
1.38072
-0.32904
-0.308104
1.65229
-0.254271
-0.339329
0.753489
-0.147721
1.20575
-0.2632
1.38748
1.99225
1.80813
-4.88421e-05
-0.0707783
1.10061
-0.161828
0.862261
2.30938
-0.197927
-0.20445
1.70973
1.24819
-0.671835
-0.0720775
-0.257784
2.45322
-0.383307
1.58968
-0.234244
-0.0681287
-0.371389
-0.0692744
0.00231629
-0.184836
-0.186883
-0.157161
1.60828
-0.100749
0.885246
1.71618
1.58171
1.71382
1.59189
-0.044139
1.75682
1.21845
-0.243474
1.76953
-0.188613
0.27459
0.00935605
-0.125267
-0.37128
1.45057
1.55483
1.71324
-0.114848
-0.324966
1.61319
1.32537
-0.0612611
1.67807
-0.182977
1.68004
0.0383819
0.584673
-0.384844
-0.13132
-0.0265093
-0.175745
-0.227361
1.46891
1.18161
1.25873
1.70059
-0.0982306
-0.367694
1.03938
-0.0485535
-0.649731
-0.36771
1.50776
1.83214
1.63748
-0.160728
-0.144113
-0.0144912
1.68124
1.82702
-0.108608
1.69983
-0.161247
-0.00460082
0.00314023
-0.378002
1.70618
-0.0179545
1.54798
-0.186165
1.70174
-0.160481
-0.00860127
0.377482
-0.376715
-0.06462
1.72696
1.63164
-0.442333
1.28371
-0.134722
-0.268277
-0.218773
-0.187054
-0.191561
-0.21698
1.22106
1.79471
1.72581
-0.525394
-0.17735
-0.0997033
1.12362
1.51359
-0.410007
1.97993
1.75833
1.73922
1.38013
-0.176314
-0.18057
-0.237627
0.00164306
0.546003
-0.3027
1.24373
-0.192852
1.44605
1.76779
-0.64059
-0.0206906
1.56942
1.34212
-0.263233
1.02765
1.3058
0.0494671
1.633
1.3462
-0.207436
-0.182247
0.182093
-0.0321022
-0.0286083
-0.398462
0.0161352
-0.0633674
-0.202153
-0.174732
-0.370501
-0.208686
-0.0898651
1.59231
1.64995
-0.349383
0.543615
1.76168
0.934567
-0.167355
-0.267691
-0.624499
-0.15475
0.260052
1.64517
-0.180133
1.46622
1.76347
0.832941
-0.235261
1.32298
2.55319
1.90396
1.69915
-0.265707
-0.0265497
-0.353645
1.43295
2.07976
0.62899
-0.118816
1.70222
-0.462002
1.56526
-0.198896
0.0303534
1.68296
-0.0215409
1.32749
-0.09563
-0.284799
-0.173832
-0.580556
-0.11757
-0.00803976
1.21092
-0.00962582
-0.0770045
-0.37988
0.0908854
1.61567
0.749837
1.22112
0.052161
1.78945
-0.224446
1.67366
1.82001
1.48474
-0.23595
-0.220165
1.47279
-0.00980507
1.66224
-0.0276499
-0.0741315
1.10222
-0.273374
-0.141389
-0.161646
0.412226
-0.224958
-0.221927
-0.168918
-0.0742628
-0.418827
1.60354
-0.17346
1.73383
2.4242
-0.35754
-0.0324731
-0.270466
-0.128605
1.69547
1.31873
0.937058
-0.165451
1.32985
0.0352256
-0.228277
0.0380589
1.08637
0.265139
-0.235394
-0.174119
1.48442
-0.208409
-0.278093
-0.337757
1.69459
-0.148144
-0.67901
1.54964
-0.227648
-0.0269572
1.69179
-0.190836
1.82006
2.12001
0.808159
-0.0357282
1.47477
-0.0773949
1.62746
-0.104349
1.36716
-0.175109
-0.0897985
-0.0206846
0.000711679
1.61956
-0.259549
-0.219265
1.25508
-0.0799407
0.376207
-0.19629
-0.175876
-0.353552
1.40031
-0.15884
-0.142898
-0.104496
1.73809
-0.0549547
1.64575
-0.164476
-0.247666
1.51558
1.76462
0.0352641
-0.341719
0.0585834
-0.213613
1.73937
-0.165698
0.939859
1.61252
1.38972
1.6486
1.73604
1.99224
-0.0175986
-0.364392
-0.330521
-0.0193342
-0.00617001
1.46257
1.75285
0.174818
-0.124842
1.56908
0.112318
-0.14479
-0.38352
-0.108994
-0.0951119
0.29634
-0.175893
1.45111
1.75327
-0.17268
1.02771
1.74062
0.872871
0.00565023
-0.0207647
0.00116798
1.54064
-0.168124
-0.15171
-0.223092
1.74297
-0.00744053
-0.19765
-0.204513
-0.178311
1.26854
1.73508
-0.221329
-0.188732
-0.206595
1.22238
1.88527
1.69932
1.70884
1.73498
-0.149554
-0.156855
-0.206719
-0.407274
-0.217593
1.71121
-0.366491
1.32854
1.55102
0.399156
1.75502
1.6539
1.81151
-0.34424
-0.0506233
-0.236554
1.64565
-0.183596
1.52528
1.61551
1.819
1.35727
0.949119
1.67104
1.589
1.81414
-0.862825
1.65671
1.18489
0.00652097
-0.475527
2.07309
1.59078
-0.316443
-0.829802
2.19122
-0.0649506
-0.189733
-0.185766
1.69728
1.47914
1.44017
0.670741
-0.0347846
1.73164
-0.242086
-0.17771
0.0320698
-0.131832
1.67525
-0.152939
1.09789
1.68266
1.51639
2.49288
1.63904
-0.156434
-0.171484
0.388261
-0.166887
0.0538126
-0.240371
0.510552
-0.400299
1.63247
1.67739
-0.0176242
-0.0407376
-0.155764
1.82623
-0.383853
1.62536
-0.21281
1.35317
-0.0223546
-0.0328913
-0.338139
-0.112605
1.11797
1.48464
-0.0961392
-0.279311
0.0455917
0.0782422
-0.183484
1.0781
1.39978
0.0721961
1.65488
1.58638
-0.133166
-0.0903569
-0.307737
-0.261892
-0.0065331
-0.146341
-0.120835
-0.814113
1.24029
1.08502
0.0519593
1.27203
-0.329934
1.66333
-0.0462045
-0.169255
0.0130565
1.3019
-0.111315
1.68775
1.81888
-0.013901
-0.256474
1.89918
1.62451
1.80489
-0.126571
-0.0660654
-0.380849
0.608292
1.12094
-0.00371186
-0.168775
-0.394491
1.24055
0.00792382
-0.108971
1.69968
-0.0158763
0.556622
-0.233757
-0.224081
0.510083
-0.245131
0.680967
1.60379
-0.212659
-0.0406755
2.04603
0.016785
1.56539
-0.999992
0.00812771
-0.347827
1.49587
-0.0235516
-0.276636
-0.305118
-0.0270031
-0.0357471
1.20512
-0.00209232
-0.340222
1.64501
0.903449
-0.138396
-0.2135
-0.121584
-0.173483
1.78909
1.33555
-0.327587
1.97926
-0.0938614
-0.183926
0.00499478
-0.169664
1.73263
-0.205595
-0.329457
-0.031221
-0.040286
-0.193253
1.44568
-0.167951
-0.0349245
1.30377
0.714491
1.59069
-0.171633
1.11701
1.70208
-0.192812
-0.152375
-0.0857767
1.68807
-0.363484
-0.232705
1.18589
-0.219441
1.60652
1.16057
0.42446
-0.416256
2.56051
-0.145171
0.538605
-0.334002
1.6685
1.37781
1.21698
1.22093
-0.26026
-0.168443
-0.204471
-0.501168
-0.117224
-0.771613
1.12837
0.826648
-0.303873
1.27259
-0.0657299
-0.0692918
0.300133
-0.0417715
-0.198755
-0.157346
1.8946
-0.0432335
1.24474
-0.0991318
1.68379
-0.642042
-0.181749
1.58404
-0.372598
-0.112401
1.55153
-0.199084
-0.203453
-0.0956782
-0.103256
0.328279
-0.480299
-0.00569829
-0.277144
-0.182478
-0.131496
1.64341
-0.221386
2.05443
-0.176955
-0.129377
-0.285799
0.262626
-0.182968
-0.478653
1.26333
2.06084
1.53161
1.68885
-0.174994
-0.165296
1.30684
-0.122882
-0.259347
2.61679
-0.361815
-0.405166
-0.0875795
-0.021296
-0.245269
-0.180924
-0.020046
0.0708948
1.28904
1.35925
-0.20409
1.34818
1.57769
-0.18586
1.20555
1.94761
-0.161788
1.51049
-0.684551
-0.048333
-0.206228
1.26393
-0.167215
-0.221773
-0.150224
-0.240404
1.2331
-0.184055
-0.166284
-0.138814
-0.0282755
1.50908
0.0050901
1.03764
-0.287483
0.00950634
0.657829
1.29768
-0.286856
0.294946
-0.243123
-0.352418
-0.217833
1.34876
1.58307
1.37951
0.150894
-0.0452316
-0.082482
-0.319379
-1.03001
1.30378
0.303212
1.08557
1.66217
-0.348451
1.17292
2.15739
-0.313463
-0.111168
-0.407937
-0.35218
1.68833
1.5771
-0.0298823
-0.328192
0.0512796
-0.535062
-0.137194
1.65567
1.9738
-0.157896
0.0723678
-0.02429
-0.163336
1.61188
-0.12235
-0.195899
-0.195019
1.61114
-0.223285
-0.409702
0.571478
-0.12183
1.75792
1.03943
-0.334067
-0.108084
-0.179376
1.27722
0.314312
0.235742
-0.307244
-0.264303
-0.183293
-0.307616
-0.0144336
1.85635
-0.433734
-0.293545
1.3571
-0.00227445
-0.216174
0.797868
0.0558724
1.30304
1.56977
1.33831
-0.177204
-0.00218085
1.61145
-0.178865
1.30941
1.65028
1.1968
-0.0811225
1.61094
-0.0508252
-0.207609
1.3544
-0.394736
-0.379666
-0.0829688
-0.345529
-0.00907743
-0.18142
-0.00872597
1.75306
1.66118
1.65693
-0.137245
1.19952
1.85131
-0.126753
-0.329205
-0.219244
-0.111823
-0.0229241
0.361123
-0.297059
-0.207878
1.58891
0.272469
1.54663
-0.0299537
0.934426
-0.0726546
1.3483
1.06661
1.7365
-0.323005
0.0165647
0.814001
-0.13414
1.57962
-0.0832356
0.0648485
-0.278889
-0.194103
1.29275
1.13415
-0.129259
-0.0576345
-0.0462159
0.002938
-0.319747
-0.0920193
1.32259
-0.461623
-0.0214192
0.983168
-0.219201
-0.195003
-0.162439
-0.332974
-0.288101
-0.000397763
-0.404327
-0.245694
1.59927
2.10053
-0.140279
-0.170255
0.326885
1.64138
-0.127772
1.53945
1.5305
-0.383374
1.20777
1.7277
-0.462495
-0.280323
1.93398
1.17504
1.80375
1.53313
1.68256
1.68733
-0.250922
0.0622878
1.56433
1.67313
-0.26468
1.71029
-0.184047
1.60938
1.48146
1.72851
-0.170863
-0.426834
-0.172026
1.1752
1.676
-0.162989
0.00221928
1.30128
-0.0866184
-0.136862
1.76738
-0.125873
-0.109078
-0.36209
-0.178534
-0.280901
1.72692
-0.263316
1.7122
1.35751
1.72572
-0.0731682
1.37467
-0.170335
1.72547
-0.321971
1.60003
1.36355
-0.324095
1.66198
1.45698
-0.293747
-0.0308571
-0.248934
1.4312
1.30433
1.70465
-0.11639
-0.00870455
-0.240565
0.0770187
-0.213419
-0.171916
1.73962
1.56809
2.51499
1.16422
-0.188535
1.71282
0.271545
1.61666
-0.304155
-0.158666
-0.142221
-0.254243
0.648905
0.414214
1.54659
-0.0734426
-0.396529
1.2764
1.35567
-0.223819
1.37158
1.85071
1.14207
-0.189863
1.50947
-0.267136
-0.373529
-0.0978301
-0.0748645
1.58094
-0.216273
0.457216
-0.498206
-0.178218
0.65866
0.0497354
1.18375
1.66437
1.12602
1.53748
0.038232
1.30786
1.66474
-0.00568098
-0.305308
1.7917
1.20801
-0.413454
0.0417835
1.23523
-0.0242563
1.22047
1.3213
-0.131499
1.37114
-0.225136
-0.136336
1.33173
1.58319
-0.155506
-0.281543
1.11983
0.00122985
1.53314
1.53198
-0.128112
1.34915
-0.152381
1.33277
1.76821
-0.210438
0.907077
2.31146
-1.19316
1.45031
2.08968
2.56233
2.29438
0.24242
0.42989
-0.16999
-0.189643
-0.35184
2.08121
1.8048
-0.269875
-0.000608002
1.39612
1.05517
-0.127796
1.5777
0.050881
1.72561
-0.156071
1.79782
1.13217
-0.0327743
-0.187453
-0.0894677
1.52401
1.22973
0.968945
1.14964
1.72621
-0.193209
-0.171333
-0.273798
-0.238275
-0.209907
1.25348
1.78598
1.84131
-0.403698
0.960617
-0.11796
-0.546161
1.52801
0.0182364
-0.276749
2.03482
1.21036
0.51438
-0.202158
-0.131849
1.85695
-0.112845
4.21462e-05
-0.295115
-0.00949472
-0.11188
1.70576
-0.147671
-0.00288629
-0.454346
-0.217707
-0.225284
-0.00885309
1.3894
1.08843
-0.220778
1.5317
-0.103511
-0.0751328
-0.0902543
-0.170646
-0.118548
-0.284922
-0.0871559
-0.104761
1.72048
-0.185235
-0.167214
0.28807
0.0115369
-0.298533
1.32763
-0.468179
1.71282
0.0671156
-0.58867
-0.182886
-0.0694607
-0.161121
0.102368
1.77704
1.69127
1.79082
1.36476
1.44303
0.276444
2.2483
-0.278122
1.82105
-0.0373973
-0.21427
1.56105
1.23439
-0.139192
-0.22576
1.60981
0.821144
1.6645
1.61311
0.47218
-0.21711
1.40461
1.5203
1.4712
1.6029
1.69686
1.58045
-0.0532546
-0.277446
1.71828
0.00266171
1.56946
1.56782
0.303639
1.60629
-0.177322
1.12046
1.7258
1.73793
1.16284
-0.0212554
2.04646
-0.00012352
-0.285533
-0.34835
-0.22506
-0.121067
-0.193832
-0.0184732
-0.205821
0.0695135
0.0607843
1.67882
-0.249152
1.06552
1.74391
1.5666
-0.0655802
0.0229492
-0.0142027
1.22381
-0.239447
1.71797
-0.232504
-0.0511984
1.61207
0.511743
1.75703
0.186436
1.35228
-0.450751
1.4332
1.20113
-0.145311
-0.212506
-0.211526
-0.244594
-0.137021
-0.221355
-0.152432