/*--------------------------------*- C++ -*----------------------------------*\
| =========                 |                                                 |
| \\      /  F ield         | OpenFOAM: The Open Source CFD Toolbox           |
|  \\    /   O peration     | Version:  3.0.1                                 |
|   \\  /    A nd           | Web:      www.OpenFOAM.org                      |
|    \\/     M anipulation  |                                                 |
\*---------------------------------------------------------------------------*/
FoamFile
{
    version     2.0;
    format      ascii;
    class       volScalarField;
    location    "0.911086";
    object      epsilon;
}
// * * * * * * * * * * * * * * * * * * * * * * * * * * * * * * * * * * * * * //

dimensions      [0 2 -3 0 0 0 0];

internalField   nonuniform List<scalar> 
21246
(
1224.72
539.419
180.059
74.0347
29.745
11.8006
5.19289
2.77144
1.79858
1.35244
1.1143
1324.26
659.181
291.364
126.725
52.1125
18.309
6.7326
3.19273
1.96054
1.45158
1.2037
1013.48
572.827
324.214
164.813
76.7137
30.7736
10.9552
3.98228
2.16814
1.55198
1.30312
602.774
458.544
312.268
183.195
96.3486
44.102
17.4042
6.22493
2.65057
1.65493
1.37825
298.318
350.356
279.935
188.36
111.155
57.1754
25.4496
9.92408
3.86817
1.94505
1.44765
130.191
256.626
241.258
183.706
120.803
69.1911
34.5268
15.0743
6.07612
2.65845
1.61895
73.1155
188.646
204.793
172.288
124.533
78.5806
43.5019
21.2193
9.3264
4.00065
2.03715
65.1485
135.294
172.128
157.123
122.819
84.1555
50.9749
27.4619
13.3024
6.01229
2.8328
53.0505
85.6362
137.025
139.414
117.022
85.7781
56.0071
32.8515
17.4287
8.51072
4.03901
36.6885
47.1079
96.4529
117.236
107.395
83.6384
58.1472
36.6478
21.0651
11.1313
5.54247
26.047
28.1325
60.3272
90.6228
93.5571
77.773
57.1796
38.328
23.6169
13.4237
7.09165
19.6339
18.1355
35.1394
63.8215
76.5594
68.6937
53.3078
37.7442
24.7149
14.9873
8.39757
15.8351
13.2346
21.5494
41.3715
58.8562
57.6368
47.2574
35.214
24.3411
15.6145
9.21802
12.8442
10.1461
14.7636
25.9987
41.92
45.9829
39.9315
31.2812
22.7191
15.2953
9.40579
10.3497
7.94205
10.4609
17.1721
27.7551
34.6692
32.1653
26.5025
20.157
14.1352
8.97598
8.40536
6.33249
7.58945
11.7076
18.1421
24.336
24.6528
21.4063
17.0249
12.3742
8.05084
6.83939
5.14001
5.64713
8.10967
11.8792
16.1661
17.8335
16.4533
13.714
10.3324
6.86293
5.79368
4.35163
4.3305
5.73028
7.82452
10.4435
12.2435
12.1392
10.7212
8.47135
5.82196
5.19623
3.8747
3.46086
4.20383
5.31006
6.85328
8.40776
9.09512
8.71929
7.44624
5.41728
5.47328
3.87315
3.02516
3.39568
4.03817
5.13632
6.66177
7.90572
8.33663
7.90244
6.34247
7.79835
4.34217
3.06208
3.27185
3.8845
5.21518
7.19521
8.84923
9.75558
9.91459
9.03314
11.1186
5.19763
3.47527
3.84567
5.02815
7.00821
9.00863
10.0637
10.0008
9.46409
8.73344
13.685
5.74475
5.2459
6.42636
8.50435
10.4775
11.0693
10.3419
9.08978
7.95112
7.12641
37.7519
21.3221
17.4616
16.1132
15.0299
13.2774
11.2016
9.21129
7.63285
6.59816
5.97115
1345.58
333.537
143.35
58.2547
23.3061
9.79933
4.64394
2.59301
1.70707
1.27683
1.03148
1067.8
284.202
124.214
56.2149
24.5544
10.821
5.14276
2.78515
1.75997
1.2737
1.0091
865.556
268.885
119.733
59.3152
28.0658
12.8455
6.07039
3.15726
1.88856
1.30642
1.00989
649.439
224.177
106.192
58.7268
31.1994
15.4708
7.4634
3.75889
2.10809
1.36864
1.01687
489.703
179.119
91.2754
54.0776
32.2049
18.4398
9.84042
5.00657
2.62534
1.54862
1.07195
373.526
141.653
78.019
49.1779
31.6176
20.0348
12.1098
6.84698
3.68153
2.00481
1.21464
282.82
111.623
66.3251
44.332
30.6246
21.2051
14.084
8.60834
4.80971
2.5642
1.42936
208.856
86.8869
55.6778
39.4586
29.2096
21.9444
15.8888
10.4971
6.19588
3.34954
1.77957
149.424
66.3287
45.7855
34.445
27.3119
22.1772
17.4168
12.4165
7.80087
4.39412
2.37736
103.793
49.5278
36.6374
29.2863
24.8643
21.7742
18.5033
14.2247
9.53949
5.64474
3.14057
70.1245
35.9134
28.3559
24.1933
21.9849
20.6739
18.978
15.7442
11.2892
7.03591
4.03321
47.0158
25.531
21.4294
19.5763
18.9826
18.9932
18.6275
16.6866
12.9484
8.51286
5.00857
32.9998
18.5104
16.3173
15.8994
16.3066
17.1406
17.687
16.8423
14.0225
9.96284
6.18772
25.4726
14.4456
13.0644
13.3514
14.2271
15.4307
16.4716
16.4143
14.474
10.9926
7.24537
22.028
12.5213
11.3213
11.8179
12.7719
13.9967
15.1831
15.5968
14.3896
11.5455
8.04507
20.9413
11.9407
10.5929
10.9968
11.7786
12.7936
13.8792
14.5088
13.8706
11.6474
8.54168
21.1679
12.1037
10.4496
10.5855
11.048
11.7149
12.5438
13.2096
13.0026
11.3742
8.73618
22.2713
12.6735
10.6327
10.406
10.4728
10.7165
11.194
11.7689
11.8766
10.8048
8.6968
24.2545
13.5543
11.0652
10.4286
10.0691
9.85398
9.91831
10.2937
10.5799
10.0001
8.40738
27.4237
14.8287
11.8026
10.726
9.93233
9.24455
8.85442
8.93255
9.23743
9.02251
7.93983
32.2434
16.6916
12.9751
11.4194
10.1796
9.0111
8.14221
7.84386
8.00401
7.9863
7.31215
40.5087
19.573
14.9327
12.7233
10.9251
9.23088
7.8713
7.14858
7.02763
7.01215
6.61002
51.8475
25.5929
18.3606
14.7865
12.0944
9.81518
8.0159
6.89234
6.43194
6.27136
6.00367
111.022
35.124
23.1262
16.8664
13.1988
10.5688
8.548
7.13577
6.33383
5.94223
5.65798
1640.3
543.454
235.861
100.615
38.7564
13.5222
4.54819
1.52032
0.512493
0.18002
0.0709942
1254.39
349.604
173.906
81.231
33.8903
12.8176
4.53097
1.53677
0.513377
0.176093
0.0671026
780.519
274.781
145.703
75.6258
34.3803
13.7802
5.03401
1.72411
0.569161
0.190736
0.0717362
539.619
215.225
124.821
70.7158
34.7767
14.7927
5.63903
1.99249
0.670422
0.224782
0.0828666
388.44
158.991
95.9529
59.9626
32.8455
15.3154
6.18826
2.2536
0.764256
0.249937
0.0864894
312.917
125.448
76.9294
49.2
28.0762
13.7789
5.82639
2.19397
0.764786
0.258376
0.0939698
265.204
103.611
63.9604
41.2159
23.7718
11.8881
5.18714
2.034
0.73934
0.25861
0.0953494
231.888
88.2605
54.3755
35.0361
20.3221
10.2872
4.58078
1.84768
0.694436
0.251851
0.0990852
207.891
76.9274
47.0929
30.2486
17.5632
8.95009
4.04278
1.66887
0.64757
0.243992
0.0995024
189.763
68.4206
41.5611
26.61
15.4484
7.90361
3.60657
1.51607
0.604094
0.234738
0.0971968
175.261
61.7792
37.2705
23.8172
13.8323
7.10047
3.26556
1.39198
0.565724
0.224553
0.0960249
164.268
56.4047
33.8353
21.6063
12.5677
6.47705
3.00073
1.29428
0.53475
0.216411
0.0945837
156.549
52.1555
31.1189
19.8858
11.6037
6.01109
2.80596
1.22339
0.512967
0.211319
0.0936634
151.089
48.9604
29.0519
18.614
10.9205
5.69529
2.67964
1.1797
0.500615
0.208811
0.0940522
148.235
46.4976
27.4429
17.6651
10.4488
5.50013
2.61243
1.16127
0.497847
0.209534
0.0947971
148.08
44.722
26.262
17.0227
10.185
5.42873
2.60823
1.17087
0.50624
0.21414
0.0969816
150.404
43.7324
25.5431
16.7154
10.1602
5.50504
2.68129
1.21543
0.528735
0.223638
0.10087
156.503
43.9466
25.3702
16.7736
10.4225
5.75948
2.85026
1.30535
0.570495
0.240342
0.107561
167.493
45.6716
25.849
17.1982
10.9695
6.27583
3.19584
1.4883
0.654434
0.274826
0.121084
185.653
49.4758
27.2513
18.1221
11.8727
7.07897
3.76114
1.81107
0.813966
0.346742
0.150562
215.817
56.4389
30.0186
19.7623
13.2333
8.2364
4.61541
2.34416
1.10447
0.491006
0.21575
270.011
67.5865
34.7334
22.3641
15.1564
9.81621
5.84441
3.19374
1.62615
0.782785
0.365114
370.575
85.7781
41.9839
26.4473
18.011
12.0801
7.66162
4.561
2.56712
1.37901
0.715418
596.425
91.1756
49.1604
30.493
21.8893
15.6723
10.804
7.10678
4.47565
2.71568
1.60095
1673.08
941.973
433.885
195.397
76.604
23.3715
7.10627
2.14379
0.684381
0.229992
0.0869646
1737.49
1011.93
597.991
321.732
156.105
63.1914
19.3668
3.96881
1.09075
0.345522
0.122959
858.017
833.279
614.238
387.514
217.826
105.356
40.6693
10.8759
1.97116
0.555786
0.191745
514.106
878.389
648.096
434.485
264.951
142.592
64.2721
21.9291
5.09999
0.965807
0.313535
560.736
702.059
675.971
477.435
304.584
175.041
87.3339
35.2741
10.4939
2.29729
0.531436
550.133
544.907
681.059
536.467
349.412
206.756
109.627
49.5544
17.719
4.7725
1.10978
501.168
407.731
587.777
610.555
416.124
245.925
133.104
64.2614
26.0844
8.38792
2.22998
465.787
344.232
479.628
630.516
496.433
297.448
160.266
79.5138
34.9642
12.8647
3.94211
440.065
303.45
400.653
581.926
572.168
363.641
194.007
96.0894
44.0617
17.8319
6.19866
418.953
272.543
348.811
513.061
605.397
432.565
233.704
114.279
53.1916
22.9357
8.83531
402.059
244.803
307.437
448.672
589.3
488.764
274.843
133.137
62.0042
27.8673
11.6591
388.952
222.734
272.5
390.627
537.161
515.018
308.213
149.433
69.468
32.2028
14.4112
382.754
204.853
241.667
338.012
474.064
507.882
325.046
159.125
74.2703
35.5142
16.8936
383.637
191.448
214.972
289.628
406.107
471.807
321.029
159.326
75.4479
37.5171
19.0718
394.481
184.967
194.045
246.432
333.97
412.845
296.566
148.924
72.8836
38.2467
20.9167
413.402
183.22
177.119
209.065
262.309
316.3
262.82
130.731
67.3137
38.1372
22.5848
440.01
185.006
161.233
173.196
199.803
223.69
210.801
116.027
61.38
38.1902
24.4897
480.457
192.984
148.835
142.113
149.658
159.585
156.965
106.613
58.5637
39.7104
26.9904
548.048
212.345
144.782
121.346
116.696
120.674
122.608
102.175
64.6335
45.1286
32.1343
673.068
253.747
158.657
118.469
104.129
105.253
110.626
105.811
81.8177
56.0759
38.8901
940.878
352.38
227.173
167.518
138.61
130.667
130.963
124.412
103.521
72.5351
48.4187
1527.17
612.462
461.175
370.97
297.945
247.009
190.822
147.543
106.17
72.3974
46.6129
1110.99
561.68
509.696
367.917
264.906
187.577
128.434
86.475
56.8389
36.5195
22.8558
1033.83
541.603
313.929
194.371
124.954
81.495
52.9935
33.9604
21.293
13.0265
7.76746
175.261
95.6907
17.0335
3.97074
1.32411
0.728018
0.54959
0.481138
0.448865
0.429125
0.411477
283.3
214.317
18.8408
5.82601
1.61086
0.804534
0.555406
0.462124
0.41723
0.389073
0.365603
365.625
239.2
32.3259
7.73081
1.79446
0.88281
0.564824
0.449359
0.393113
0.357058
0.325301
404.823
225.619
38.5434
8.67579
1.87562
0.943183
0.569694
0.439247
0.374294
0.332071
0.293531
411.806
214.84
41.5621
8.78944
1.94664
0.979308
0.568631
0.430463
0.359642
0.313963
0.27349
399.895
211.533
45.822
9.42748
2.04838
0.996877
0.566127
0.422954
0.348251
0.300967
0.260697
372.893
213.402
51.8115
11.15
2.35464
1.00958
0.566579
0.417132
0.339513
0.291409
0.250787
334.842
218.2
58.5777
13.6976
2.93056
1.07552
0.576939
0.413341
0.33321
0.28461
0.244863
292.886
224.692
66.6394
17.2019
3.89493
1.23671
0.609719
0.416148
0.330345
0.280103
0.241043
251.138
232.313
77.5345
22.2996
5.54321
1.60192
0.687018
0.430014
0.331655
0.278363
0.239459
209.939
241.282
90.881
29.0554
8.06559
2.30042
0.854122
0.466531
0.339296
0.279223
0.239369
171.676
252.538
105.925
37.144
11.4539
3.42584
1.17102
0.54691
0.359021
0.284044
0.241108
139.973
264.843
123.63
47.1173
15.9599
5.1418
1.73515
0.712394
0.404625
0.296788
0.245676
116.071
276.25
145.161
59.9968
22.0963
7.71304
2.69567
1.03577
0.505185
0.327319
0.256097
101.736
290.472
170.471
75.8641
29.9868
11.2788
4.18257
1.60624
0.707649
0.395585
0.279714
99.8051
307.191
200.837
96.0759
40.3794
16.2084
6.40768
2.55601
1.08863
0.540024
0.333121
110.21
320.678
236.105
122.771
54.7814
23.2805
9.76865
4.1062
1.77563
0.830912
0.451406
131.129
327.353
272.897
157.063
74.8392
33.5567
14.8664
6.60093
2.97278
1.38907
0.702693
158.096
321.191
302.177
198.078
102.799
48.927
22.8669
10.7146
5.07022
2.44314
1.2207
185.238
300.891
311.322
238.376
139.502
72.0473
35.8864
17.8098
8.88786
4.47669
2.29011
207.236
265.607
290.597
261.755
180.386
105.307
57.4093
30.6062
16.2282
8.60909
4.58454
256.21
231.946
256.17
261.22
215.695
148.495
91.9365
53.9756
30.8925
17.4835
9.81701
286.373
191.869
194.358
205.3
196.338
165.393
123.176
83.9026
53.997
33.6918
20.4772
566.97
601.318
487.644
400.847
308.521
226.496
159.228
109.361
73.9433
49.4709
32.4056
131.193
63.7842
14.597
2.98944
1.11935
0.689981
0.557573
0.508098
0.489227
0.483587
0.483785
181.091
55.7247
8.84941
2.98865
1.25965
0.757871
0.595736
0.539285
0.522308
0.523537
0.53468
220.209
68.4135
7.88921
3.21404
1.36377
0.838371
0.646375
0.578197
0.559587
0.56579
0.587591
234.263
65.2146
7.4845
3.34951
1.33809
0.820632
0.62639
0.559792
0.547194
0.562777
0.59878
234.457
54.753
7.18005
3.30108
1.31141
0.816631
0.609566
0.533462
0.511603
0.519111
0.547856
231.112
45.4362
6.86583
3.1269
1.26454
0.805515
0.591285
0.509099
0.479058
0.478148
0.497583
227.505
38.6418
6.5538
2.92182
1.21209
0.788174
0.571322
0.486897
0.450483
0.441451
0.449236
222.801
33.7172
6.24136
2.72757
1.16511
0.767194
0.552528
0.467581
0.426835
0.411283
0.408079
220.053
30.1761
5.97971
2.57512
1.13496
0.746648
0.536767
0.451656
0.408424
0.389605
0.382422
220.065
27.7761
5.79065
2.46346
1.12095
0.731189
0.525138
0.439321
0.394669
0.375096
0.369493
223.639
26.3529
5.70768
2.4045
1.12214
0.723691
0.518301
0.430559
0.38447
0.364598
0.360653
229.592
25.5595
5.69401
2.38879
1.1377
0.724441
0.516289
0.425107
0.376839
0.355911
0.35286
238.073
25.977
5.77181
2.41666
1.17158
0.734582
0.519813
0.422972
0.371301
0.347878
0.343752
247.568
28.8197
6.34311
2.55792
1.25203
0.764084
0.534166
0.426261
0.369002
0.341178
0.333718
258.72
32.9185
7.38473
2.83556
1.38983
0.820981
0.563255
0.437445
0.371218
0.336728
0.323441
272.38
38.5819
9.08888
3.34072
1.61647
0.922415
0.615153
0.461376
0.380485
0.336167
0.314549
289.515
46.3422
11.774
4.24284
2.00429
1.1037
0.707958
0.508397
0.402778
0.343307
0.310209
312.102
56.4183
15.7558
5.78649
2.68854
1.43655
0.881411
0.601522
0.4521
0.366976
0.316576
343.086
69.6124
21.5395
8.35907
3.92227
2.07286
1.2269
0.796667
0.563875
0.430246
0.349456
387.646
87.7973
30.0801
12.6172
6.17295
3.32945
1.95606
1.23453
0.833271
0.598647
0.455036
456.322
114.417
43.229
19.7541
10.3098
5.85054
3.54427
2.26439
1.5174
1.06359
0.77851
572.831
156.564
64.8345
32.2635
18.093
10.9574
7.01678
4.69403
3.25973
2.34337
1.7435
800.246
243.855
110.009
58.8266
35.0231
22.3944
15.0901
10.6021
7.72391
5.81743
4.52088
1455.95
449.202
232.953
144.034
97.2965
68.5664
50.8182
39.3332
31.4726
25.7454
21.1325
4.75339
3.19965
3.46017
5.24528
18.118
37.463
51.8706
62.3946
71.4464
7.17729
2.69806
2.17361
7.29012
16.1935
20.7912
22.7666
23.1325
24.1143
6.81997
2.91572
2.39661
7.79609
14.2076
15.0754
13.9336
12.5225
12.4689
6.09991
2.97299
2.69151
7.55294
11.2539
10.2659
8.62767
7.51265
7.23537
21.4503
41.79
56.1545
65.8681
72.9926
75.9248
75.5936
75.1357
77.0753
14.7532
20.1345
21.3999
21.3222
22.259
22.915
23.9381
24.8962
24.643
12.0415
13.7628
12.4109
11.3386
11.5571
12.1551
13.0256
13.7093
13.084
9.234
9.17087
7.67912
6.90374
6.76954
6.89932
7.2972
7.98058
7.53981
0.00901729
0.0082935
0.00834689
0.00544417
0.471393
0.00755097
0.128696
0.0080973
0.00752613
0.00695214
0.472188
0.00813428
0.0103243
0.00518164
0.0146137
0.00728587
0.00619272
0.00535422
0.00724991
0.00710357
0.00663586
0.0619762
0.00852161
0.120651
0.00792261
0.00512166
0.00992795
0.120188
1.14917
0.385052
0.00739338
0.00643852
0.00698827
0.00806785
0.00681447
0.00826316
0.110295
0.00790605
0.00786793
0.00757766
0.178361
0.00809953
0.0378906
0.00849717
0.728264
0.237143
0.0184677
0.343427
0.00693002
0.00736961
0.389822
0.00759628
0.0393361
0.0385641
0.00734915
0.00666329
0.0591075
0.00761608
1.1872
0.0152117
0.0892347
0.0288054
0.511449
0.0348019
0.195214
0.00714287
0.37368
0.00723293
0.00829552
0.00693967
0.00514991
0.00721508
0.0143534
0.00800469
0.011454
0.00714169
0.0757517
0.00828207
0.0556593
1.13111
0.282178
0.0261875
0.00793262
0.00838143
0.00698445
0.0144065
2.03509
0.0248551
0.0194363
0.11127
0.00809383
0.00765078
0.191662
0.00743628
1.05908
0.637267
0.00630547
0.00597925
0.0246589
0.00739053
0.00783791
0.304685
0.00680807
0.00616588
0.0150207
0.00812579
0.00461068
0.00845336
0.0155998
0.00667582
0.00796959
0.00815162
0.00724413
0.00649398
0.0211284
0.00769092
0.00753689
0.00732452
0.00793168
0.00673729
0.00696423
0.00777865
0.00991437
0.00507632
0.215439
0.00723774
0.347744
0.00472832
0.00660516
0.00958683
0.00778014
0.0153113
0.316593
0.00715186
0.00834011
0.00812774
0.0622569
0.0157258
0.409063
0.00733238
0.0394734
0.00659835
0.220028
0.00867942
0.00751115
0.0253283
0.0155349
0.0072264
0.00714383
0.00706896
0.00717741
0.00766433
0.0279013
0.00775539
0.0060736
0.0198833
0.0190032
0.043183
0.00543797
0.00747739
0.00549524
0.0337058
0.007201
0.00771856
0.381117
0.0268386
0.0200501
0.00696811
0.00694874
0.19064
0.00582964
0.00541527
0.00839953
0.00645758
0.00642583
0.006419
0.00581501
0.0293126
0.744066
0.00696063
0.00721647
0.0678899
0.00849748
0.115774
0.0079468
0.0125295
0.00708994
0.00727492
0.00824939
0.0797821
0.0145608
0.00531043
0.00718895
0.174501
0.00832334
0.0076092
0.00744185
0.0256723
0.0103343
0.00856745
0.0270984
0.00735207
0.0137784
0.00799186
0.00838574
0.025088
0.0074047
0.00656883
0.00741458
0.00740845
0.130575
0.00759154
0.00827388
0.00674077
0.00791318
0.0120356
0.00798011
0.0247155
0.00716325
0.0111607
0.0103212
0.00653415
0.00647403
0.0212739
0.00485771
0.0076323
0.0771541
0.0249044
0.0127678
0.152231
0.0428887
0.00713622
0.00715027
0.00773096
0.028127
1.63725
0.335888
0.00845045
0.00815078
0.00810776
0.024779
0.0331166
0.00613524
0.155373
0.00819436
0.0399982
0.00800595
0.00828108
0.445169
0.359747
0.00822958
0.132933
0.010094
0.00727172
0.0060249
0.00746927
0.00672749
0.00785829
0.0196612
0.00706496
0.00838937
0.00982608
0.00738256
0.00820049
0.00796293
0.0166819
0.00659137
0.00815868
0.0176523
0.00694308
0.209392
0.0073195
0.00732739
0.0174291
0.00756877
0.00736654
0.00540793
0.00776359
0.00691424
0.0186675
0.0073102
0.00829075
0.284806
0.312763
0.00603579
0.00759505
1.4159
0.00825309
0.00683427
0.0385461
0.00835198
0.115463
0.0071194
0.00941328
0.00856553
0.00743942
0.00685081
0.00816672
0.00682093
0.00540195
0.00775768
0.00903011
0.00710085
0.393861
0.0067645
0.00667163
0.00828551
0.0807686
0.0654631
0.00744137
0.0857243
0.00817085
0.00646026
0.00676847
0.0816091
0.00655772
0.00709872
0.0146557
0.00671289
0.00775298
0.00708515
0.21222
0.00746384
0.00538237
0.0239675
0.00679873
0.00778235
0.00595324
0.00709144
0.127418
0.00726375
0.525655
0.073044
0.00846408
0.0115528
0.720978
0.0158849
0.00824338
0.00785207
0.00589971
0.0277098
0.126889
0.00731944
0.0265957
0.189796
0.0819858
0.0214257
0.00753537
0.0932279
0.381213
0.113745
0.00581506
0.00700552
0.0068206
0.0132015
0.00860274
0.0109146
0.00696
0.00850135
0.178818
0.00986501
0.00536341
0.00800644
0.00798816
0.0072901
0.0189284
0.00510158
0.0157218
0.146418
0.00815899
0.00774128
0.110091
0.566032
0.00477625
0.0119998
0.00832222
0.00904998
0.0067685
0.0075295
0.0070936
0.242409
0.00756163
0.0248177
0.00765533
0.00527129
0.330021
0.00841872
0.00481944
0.0316133
0.0225351
0.00769843
0.0544432
0.00467654
0.00792339
0.347779
0.200235
0.00787104
0.00721494
0.00836657
0.0346834
0.0193846
0.00764699
0.00850551
0.0395151
0.00757548
0.194458
0.0535147
0.0332709
0.0073428
0.210555
0.00687816
0.00720198
0.0112649
0.0107038
0.0305685
0.00640251
0.0147596
0.00841471
0.00486305
0.0434287
0.296062
0.00618484
0.158272
0.013928
0.00628868
0.00664397
0.00790903
0.0281539
0.00978304
0.20159
0.0078974
0.0246434
0.00509468
0.00663462
0.00686259
0.0137877
0.197073
0.414392
0.00512965
0.00860023
0.00596876
2.03479
0.00509353
0.00868903
0.00681673
0.0231861
0.0146438
0.0415653
0.00742278
0.0348997
0.00773824
0.00833652
0.00794046
0.0318222
0.0181536
0.161404
0.00579544
0.0289751
0.0266256
0.00825637
0.00740735
0.365106
0.00506914
0.00599844
0.00686205
0.145053
0.115878
0.0902244
0.0916648
0.00726853
0.00657896
0.0168695
0.00698304
0.0897041
0.00683487
0.00824136
0.00735068
0.0347659
0.0329039
0.00711575
0.00778104
0.00668433
0.0953383
0.0695984
0.00845582
0.0243042
0.237734
0.00941052
0.0154922
0.00741212
0.028645
0.00760184
0.00684071
0.00761737
0.00830785
0.00641063
0.00715533
0.0053608
0.00853461
0.00811173
0.005663
0.00591633
0.00807514
0.00806422
0.497323
0.0188634
0.0129246
0.00726042
0.27318
0.00835799
0.274967
0.0162602
0.0242703
0.0221926
0.00797961
0.336022
0.0314167
0.0053318
0.00778485
0.00634903
0.00667779
0.00828476
0.00769552
0.00819197
0.0067581
0.235365
0.00799618
0.00745723
0.0851423
0.00773015
0.174983
0.00665124
0.06318
0.00559857
0.0190946
0.00856529
0.00786441
0.00841484
0.171437
0.0339861
0.00795161
0.0079095
0.00505404
0.00834868
0.00565645
0.00831411
0.185824
0.00681656
0.0462754
0.00839529
0.00763053
0.264184
0.287111
0.00679411
0.00657636
0.00710991
0.0083129
0.0137354
0.0406819
0.00721276
0.00898408
0.482554
0.883639
0.00791743
0.00736723
0.00828277
0.0148008
0.348795
0.0191356
0.00808984
0.00751688
0.312568
0.00727392
0.00855011
0.00715755
0.0418723
0.349419
0.00770981
0.0206549
0.00782091
0.0324726
0.00738955
0.010882
0.00607421
0.0064381
0.0859598
0.0372442
0.00842388
0.00854788
0.992617
0.00763798
0.00615805
0.00931751
0.0327998
0.012359
0.0275291
0.00755232
0.00692844
0.00773065
0.00790978
0.52541
0.0156454
0.0121173
0.00711223
0.00794838
0.0431328
0.007036
0.00766256
0.00682852
0.00713005
0.00830565
0.0152104
0.0323395
0.0181311
0.00621628
0.0108074
0.00724821
0.059172
0.00710758
0.00778682
0.467417
0.18359
0.00755255
0.00757693
0.0608527
0.00676875
0.00738838
0.0194644
0.00831543
0.0067288
0.0101042
0.00903599
0.00828317
0.00489147
0.00571434
0.0389104
0.141778
0.0352894
0.0330386
0.00626176
0.0203814
0.026819
0.00849267
0.00836486
0.00679152
0.024869
0.0060726
0.00695962
0.00710747
0.00511837
0.0392354
0.423273
0.0060858
0.0099641
0.00768994
0.012901
0.0081186
0.00724808
0.0069336
0.0132983
0.0070327
0.00729577
0.00684371
0.00826467
0.0119454
0.0558938
0.14794
0.00710696
0.00699356
0.00754982
0.0444646
0.0076325
0.129746
0.00720633
0.0166786
0.186263
0.0077064
0.0162891
0.00849869
0.00681043
0.017733
0.00840406
0.406268
0.00556472
0.00667831
0.00841782
0.0124808
0.00509612
0.0331813
0.353795
0.00750815
0.00642001
0.00840437
0.00784337
0.00690799
0.0214413
0.00813824
0.00761198
0.00762416
0.0100076
0.0276298
0.00816085
0.00765664
0.00751227
0.0234709
0.00546832
0.00648286
0.011383
0.139683
0.00929896
0.00633749
0.00624846
0.00840619
0.039775
0.00639319
0.139957
0.00783903
0.00681727
0.00791025
0.0072284
0.0799052
0.00810002
0.0299067
0.00516696
0.00728024
0.00672246
0.00671113
0.0271524
0.00823772
0.302087
0.0368144
0.178449
0.00662689
0.0102552
0.0288769
0.0122584
0.00765009
0.00877224
0.0334033
0.0123835
0.00803242
0.00538964
0.470616
0.00811565
0.16756
0.00926578
0.00829323
0.0157071
0.00754314
0.00685947
0.00681756
0.00778532
0.00733572
0.00479838
0.00819337
0.00684644
0.00714187
0.00908554
0.018722
0.156644
0.0149018
0.00723509
0.171094
0.227104
0.00781974
0.00483602
0.00710834
0.0269186
0.0100793
0.0445902
0.00700091
0.0208281
0.00844128
0.00890331
0.00721904
0.00695772
0.00765587
0.0126926
0.057446
0.00860687
0.00789396
0.00740923
0.250067
0.210961
0.00751053
0.00820817
0.00698934
0.00734032
0.00813928
0.00821641
0.00837875
0.00787726
0.00790366
0.00564678
0.0513333
0.090344
0.00480515
0.00706333
0.00770552
0.00793426
0.00671606
0.225124
0.00827516
0.00629659
0.0075713
0.260181
0.1315
0.0432995
0.00779502
0.0161238
0.0077175
0.00781699
0.202905
0.00715049
0.00816989
0.00715209
0.0421616
0.00602535
0.00593678
0.00813933
0.0105964
0.165231
0.0191774
0.0081645
0.00474351
0.0310691
0.0276841
0.0192402
0.00843094
0.00719667
0.00521356
0.013736
0.0246835
0.00829372
0.00684842
0.00810156
0.00737444
0.00825886
0.00718607
0.00624973
0.165623
0.218611
0.0383081
0.00810815
0.463726
0.00853344
0.00719621
0.00998189
0.00789685
0.00766189
0.00766144
0.0141784
0.0204268
0.0200366
0.00765177
0.011009
0.00768943
0.00859839
0.00737423
0.00756432
0.00712519
0.00792801
0.00815023
0.00733718
1.68812
0.0075429
0.00712908
0.00759105
0.157391
0.00715162
0.00796748
0.0184731
1.54352
0.00698276
0.00778365
0.0108695
0.0130042
0.00846801
0.00808519
0.00678995
0.00860322
0.051166
0.00828576
0.0835137
0.00948565
0.143774
0.00796815
0.00821697
0.00621106
0.0288541
0.00774856
0.00769571
0.00730303
0.00831855
0.00593519
0.186882
0.00667723
0.0271996
0.24342
0.0275165
0.00604806
0.0419202
0.00851206
0.00814687
0.00513747
0.00821014
0.00609674
0.00759854
0.280565
0.00725067
0.0106258
0.00731406
0.00464063
0.00533847
0.0197026
0.0079459
0.00693833
0.0080421
0.276042
0.0623031
0.36652
0.00656212
0.00990011
0.00689119
0.0077679
0.295376
0.00753972
0.00830403
0.00609803
0.194119
0.0323601
0.037977
0.00720604
0.00533821
0.0122271
0.644262
0.00801529
0.0069605
0.375215
0.00760554
0.0196456
0.00792335
0.0895141
0.00814692
0.0302595
0.00830498
0.00729075
0.0084512
0.00762798
0.0147262
0.00659483
0.00711689
0.00780763
0.00732419
0.00983297
0.00833916
0.0401721
0.00746492
0.00687242
0.193527
0.0233884
0.0449733
0.00832605
0.0422108
0.0072584
0.00829078
0.0265801
0.00646753
0.0355394
0.356063
0.00610072
0.0134282
0.006538
0.00741928
0.0177929
0.0171773
0.00701492
0.0500731
0.00813386
1.55084
0.0419181
0.659519
0.00812841
0.0209843
0.0118382
0.310972
0.00774275
0.00536267
0.00855556
0.00465664
0.117504
0.008159
0.00890778
0.00772395
0.028432
0.220208
0.00818877
0.0077828
0.00736653
0.0450236
0.00684086
0.18752
0.0108989
0.062171
0.347079
0.0082927
0.0160624
0.0314984
0.0296118
0.0879431
0.0232673
0.00758224
0.0114241
0.00491425
0.00809963
0.00781836
0.00856514
0.00882599
0.00659756
0.00832696
0.00557046
0.0391246
0.00485927
0.00802438
0.102854
0.0148902
0.00689269
0.0108128
0.00813826
0.00708393
0.00734566
0.201592
0.00710949
0.0161558
0.00616624
0.0238649
0.00796454
0.00694851
0.00795997
0.00753479
0.0178031
0.0428584
0.0410206
0.64146
0.200481
0.659301
0.0068811
0.0072174
0.00931684
0.00838963
0.00588216
0.019065
0.00691783
0.0982921
0.00611489
0.155145
0.00683034
0.00497332
0.00811867
0.29892
0.00862503
0.472572
0.00677113
0.00818956
0.0463537
0.059696
0.0067546
0.0264251
0.0314249
0.0652217
0.129261
0.0199445
0.225742
0.00949823
0.00719383
0.239027
0.0190729
0.00833053
0.00623463
0.00825829
0.00504305
0.00529341
0.00985147
0.00773553
0.0165984
0.630678
0.0075279
0.00723189
0.00686425
0.00819456
0.00961237
0.00542193
0.00701642
0.00558887
0.377434
0.00731211
0.63539
0.0721515
0.00775228
0.13906
0.0525784
0.0176582
0.00663944
0.143017
0.00768745
0.00803732
0.346927
0.00752306
0.00824508
0.00581912
0.00809742
0.00773342
0.166525
0.00779828
0.560379
0.0134302
0.0190274
0.00723275
0.0123983
0.0285752
0.00617186
0.218802
0.007764
0.0109828
0.0275536
0.00701642
0.0146877
0.030413
0.0228442
0.00747253
0.0328268
0.0791453
0.00645075
0.00733927
0.0277795
0.00694934
0.0189153
0.0241605
0.355289
0.00711861
0.00860352
0.00796758
0.00622463
0.00804817
0.00478424
0.0382104
1.31283
0.00802229
0.0240202
0.0280463
0.00820841
0.0342868
0.00709349
0.00697918
0.983523
0.0473647
0.291648
0.164723
0.00816443
0.0079301
0.0220852
0.223859
0.201088
0.245314
0.00493931
0.00817789
0.00718996
0.00624376
0.238354
0.0478071
0.00860357
0.0073981
0.0279978
0.0232465
0.0353666
0.00677391
0.0926606
0.215261
0.00638875
0.0055908
0.00727971
0.0071796
0.217379
0.00540158
0.00854119
0.0151234
0.00778375
0.00637003
0.363785
0.0089988
0.0104712
0.03324
0.00873475
0.00751357
0.192696
0.0194752
0.00836285
0.00455826
0.0185407
0.00661769
0.349593
0.00806546
0.00769093
0.00704177
0.147852
0.0061073
0.00746012
0.0318829
0.00833903
0.00814985
0.00859551
0.0053584
0.00770571
0.0366818
0.0183671
0.00814593
0.460849
0.036257
0.00832659
0.0313371
0.00722169
0.00517966
0.0324999
0.00802631
0.00816706
0.00788608
0.00728328
0.00793598
0.00719646
0.00807155
0.0501964
0.0350034
0.00606341
0.0416291
0.00692331
0.0201773
0.0183406
0.00855535
0.00674604
0.0158889
0.00489099
0.00674878
0.00591429
0.0066619
0.00685507
0.00795558
0.0377439
0.174932
0.0240725
0.0999206
0.00859361
0.0120293
0.372327
0.0166529
0.0125616
0.00759993
0.0336982
0.0136243
0.142717
0.00479438
0.0205121
0.0323822
0.00645286
0.00795309
0.896411
0.00482493
0.00674395
0.0294497
0.0282482
0.00584456
0.0121372
0.0144401
0.00463979
0.592519
0.389855
0.00789953
0.00720284
0.014591
0.0434114
0.0104516
0.00811699
0.00702014
0.00839077
0.0074936
0.0786368
0.00761753
0.00846138
0.134372
0.00839124
0.00734972
0.00770353
0.00757037
0.00672003
0.00858016
0.00727689
0.00975437
0.00704373
0.00879232
0.00804228
0.0311913
0.00819254
0.0175136
0.00770464
0.0209452
0.00838733
0.00767875
0.0588815
0.240626
0.00705226
0.007806
0.00758656
0.0220519
0.00826601
0.00856216
0.00832526
0.00742179
0.00622561
0.00730464
0.0309172
0.00512551
0.0611142
0.00848315
0.00868468
0.00789009
0.00669315
0.00873546
0.00843536
0.00801862
0.160084
0.00758484
0.0163275
0.00790189
0.00799648
0.485124
0.00845216
0.00855426
0.14405
0.201626
0.0138972
0.00756324
0.0199049
0.00789235
0.00996948
0.0118426
0.0107825
0.00743324
0.00627971
0.024052
0.00763174
0.0321275
0.00708329
0.0153487
0.0269051
0.00810816
0.0162279
0.00763357
0.14171
0.0145981
0.00498626
0.030375
0.0064293
0.0059728
0.00840164
0.0104315
0.0301098
0.00752729
0.00811363
0.0384654
0.00679832
0.00681246
0.00691095
0.00545629
0.00789485
0.0283233
0.0301913
0.00688419
0.0177699
0.00798152
0.00749054
0.00702474
1.19129
0.00977178
0.00742785
0.170065
0.0321516
0.00821032
0.00706202
0.0289707
0.0105784
0.00661296
0.0072772
0.0157903
0.0400779
0.00754244
0.00693651
0.0761228
0.00715377
0.00830242
0.00737119
0.00693584
0.00791141
0.0247897
0.00764353
0.0316833
0.00632203
0.0134087
0.00813202
0.00502927
0.0281651
0.00690657
0.0214088
0.00765788
0.00733194
0.0394877
0.0136541
0.00560089
0.00845855
0.00743811
0.224249
0.00740913
0.00700181
1.67695
0.00673433
0.0071197
0.00703158
0.0070129
0.00647562
0.00632474
0.0156396
0.00514997
0.016176
0.00711015
0.00758803
0.0156489
0.00454359
0.00748398
0.00646099
0.00564208
0.00730867
0.26627
0.00855585
0.0266035
0.00748788
0.00689072
0.00588007
0.00727898
0.0124234
0.00795538
0.00721678
0.00673705
0.00756681
0.00837737
0.0341754
0.0218948
0.0110688
0.0107265
0.0376888
0.00672143
0.00756462
0.00746583
0.210098
0.00725762
0.00657118
0.34155
0.0068325
0.213596
0.154623
0.00684779
0.00810059
0.00718857
0.00537965
0.00493299
0.00680964
0.0079453
0.0230922
0.0367285
0.00477355
0.0349782
0.00780816
0.0716655
0.0196373
0.945561
0.0107612
0.0117447
0.00500216
0.00828697
0.0069075
0.0250159
0.00790243
0.0110514
0.00533197
0.0120805
0.00522843
0.0605969
0.0162278
0.026824
0.262024
0.00780568
0.346884
0.00964779
0.00651438
0.00603683
0.00869664
0.00840576
0.589026
0.00781586
0.291929
0.316242
0.00507091
0.0603292
0.0245262
0.3027
0.00740053
0.00787451
0.00741764
0.00726886
0.00765996
0.00621788
0.00703543
0.0224918
0.00779624
0.206138
0.016291
0.00764125
0.00818132