/*--------------------------------*- C++ -*----------------------------------*\
| =========                 |                                                 |
| \\      /  F ield         | OpenFOAM: The Open Source CFD Toolbox           |
|  \\    /   O peration     | Version:  3.0.1                                 |
|   \\  /    A nd           | Web:      www.OpenFOAM.org                      |
|    \\/     M anipulation  |                                                 |
\*---------------------------------------------------------------------------*/
FoamFile
{
    version     2.0;
    format      ascii;
    class       volScalarField;
    location    "0.911086";
    object      k;
}
// * * * * * * * * * * * * * * * * * * * * * * * * * * * * * * * * * * * * * //

dimensions      [0 2 -2 0 0 0 0];

internalField   nonuniform List<scalar> 
21246
(
0.801319
1.32016
0.9293
0.679415
0.459436
0.300817
0.203986
0.149352
0.118565
0.100258
0.0880444
0.73021
1.08424
0.920958
0.726069
0.528148
0.347562
0.227767
0.161067
0.125035
0.105027
0.0925385
0.597123
0.834193
0.845047
0.724072
0.563993
0.395631
0.261833
0.174882
0.131722
0.109481
0.0972502
0.437588
0.674008
0.753349
0.697003
0.577955
0.430692
0.295409
0.196678
0.140677
0.11312
0.100974
0.287679
0.567632
0.671134
0.661979
0.580984
0.457477
0.328151
0.222361
0.154528
0.118626
0.103639
0.173133
0.482838
0.600956
0.623964
0.575908
0.477493
0.359389
0.251543
0.173483
0.127463
0.106592
0.122254
0.431313
0.553278
0.589305
0.564581
0.489733
0.386519
0.28174
0.196889
0.140674
0.111411
0.117569
0.403771
0.532096
0.566415
0.55228
0.494949
0.40713
0.309556
0.222341
0.15784
0.119207
0.106133
0.355736
0.511296
0.553948
0.543406
0.495673
0.420628
0.332316
0.246887
0.177316
0.130063
0.0851656
0.270091
0.45353
0.533314
0.534255
0.492619
0.427107
0.348375
0.267826
0.196719
0.142942
0.0692207
0.206465
0.369456
0.486904
0.514481
0.482795
0.425742
0.356395
0.282774
0.2134
0.155797
0.0582882
0.161428
0.281326
0.414189
0.476283
0.462062
0.415126
0.355428
0.29003
0.224919
0.166375
0.0510816
0.134027
0.213545
0.329725
0.420427
0.428578
0.394496
0.345311
0.288928
0.22966
0.172508
0.0447127
0.114238
0.170776
0.253562
0.34954
0.383266
0.363977
0.326331
0.279445
0.226853
0.172462
0.0387115
0.0981812
0.138854
0.198844
0.275232
0.327948
0.324769
0.299165
0.261947
0.21638
0.166059
0.033436
0.0847565
0.114142
0.158445
0.214317
0.266011
0.279474
0.265538
0.237999
0.199849
0.154578
0.0287093
0.0730812
0.0948005
0.127434
0.167009
0.208499
0.231507
0.22898
0.211266
0.181248
0.141791
0.0250375
0.0638501
0.0796898
0.103817
0.131371
0.16233
0.187759
0.195951
0.188951
0.168318
0.135397
0.022388
0.0569803
0.0684209
0.0867968
0.10644
0.130209
0.156314
0.174343
0.17891
0.168942
0.141741
0.0219193
0.054493
0.0623476
0.0771326
0.0923557
0.112603
0.139156
0.162076
0.173668
0.172907
0.153393
0.0256217
0.0548118
0.0605239
0.0726703
0.0853317
0.104114
0.12836
0.146809
0.157057
0.16105
0.154729
0.0290135
0.0548299
0.0579304
0.0687426
0.0820171
0.100604
0.119755
0.134498
0.144502
0.152309
0.155442
0.0283782
0.0456379
0.0530969
0.0669246
0.0865964
0.110852
0.131454
0.144757
0.151707
0.155042
0.155386
0.0434485
0.0535425
0.0758961
0.103452
0.13028
0.149804
0.160896
0.164245
0.162613
0.159208
0.154479
0.80737
1.08321
0.885178
0.618373
0.410203
0.273708
0.191215
0.142811
0.1142
0.0963925
0.0838618
0.572198
0.874768
0.777745
0.59802
0.419873
0.286596
0.199741
0.146792
0.115203
0.0958841
0.0828924
0.493598
0.768641
0.72496
0.607724
0.450828
0.313057
0.216067
0.155019
0.118474
0.0967306
0.0830751
0.434205
0.671036
0.664736
0.604403
0.481589
0.347878
0.240294
0.168001
0.123817
0.0979957
0.082846
0.388658
0.588271
0.609119
0.580418
0.497442
0.388381
0.279984
0.194195
0.137024
0.102847
0.083831
0.347894
0.516462
0.559485
0.552373
0.496736
0.412512
0.318323
0.2312
0.162327
0.115001
0.0867834
0.307073
0.450775
0.510355
0.520507
0.489197
0.429351
0.351127
0.26692
0.190563
0.131557
0.0926775
0.264902
0.387939
0.458823
0.483372
0.473737
0.437689
0.378625
0.303131
0.22442
0.155866
0.105128
0.221627
0.325745
0.403154
0.43961
0.449217
0.435911
0.397982
0.336067
0.260764
0.187524
0.128342
0.180162
0.265925
0.343901
0.389148
0.414989
0.422513
0.406479
0.361856
0.29514
0.222026
0.157259
0.142432
0.213578
0.2864
0.33599
0.373017
0.397381
0.402374
0.377356
0.323218
0.254659
0.187938
0.111108
0.171833
0.236422
0.28703
0.330097
0.365219
0.38586
0.379952
0.342311
0.281454
0.215857
0.0884176
0.142116
0.198054
0.247162
0.292121
0.332575
0.36277
0.370835
0.348082
0.299329
0.240109
0.0742396
0.123825
0.172041
0.218272
0.262318
0.303903
0.338403
0.355186
0.343843
0.305711
0.253725
0.0666755
0.11471
0.156751
0.199638
0.241058
0.280878
0.315712
0.336761
0.333298
0.303495
0.257839
0.06331
0.111361
0.148859
0.188321
0.226131
0.262373
0.294917
0.317084
0.318829
0.295457
0.255256
0.062124
0.11093
0.145238
0.181225
0.214774
0.246247
0.274797
0.296046
0.301363
0.283669
0.248268
0.0619159
0.1117
0.143924
0.176463
0.205353
0.23122
0.254519
0.273375
0.281203
0.269088
0.239145
0.0621935
0.112877
0.144011
0.173371
0.197577
0.217395
0.234471
0.249498
0.25846
0.251772
0.227433
0.0627815
0.114001
0.144901
0.171648
0.191682
0.205682
0.216126
0.226027
0.234224
0.231835
0.213924
0.0632547
0.114058
0.145519
0.170581
0.187636
0.197006
0.2014
0.205461
0.210768
0.210656
0.198275
0.0638448
0.113107
0.144864
0.169197
0.184864
0.191519
0.191518
0.190078
0.190836
0.190232
0.181635
0.0608589
0.104151
0.138782
0.164709
0.180804
0.187026
0.185293
0.180328
0.17671
0.17378
0.167197
0.070842
0.113641
0.145187
0.164462
0.176439
0.181395
0.179786
0.174285
0.168518
0.163662
0.157565
0.971383
1.39229
1.0827
0.747126
0.470237
0.279337
0.163049
0.0946258
0.0545618
0.0314989
0.0187376
0.70271
1.01913
0.913045
0.674427
0.444105
0.273404
0.162253
0.0941949
0.0539205
0.030771
0.0180332
0.500343
0.847725
0.812741
0.650124
0.452253
0.287226
0.172831
0.100418
0.05697
0.0321302
0.0187338
0.404867
0.716118
0.733299
0.625072
0.458021
0.301232
0.185435
0.109487
0.0627167
0.0353828
0.0204275
0.341119
0.579696
0.618507
0.566742
0.444986
0.308198
0.194976
0.116287
0.0665063
0.0369616
0.0206942
0.308421
0.499735
0.535887
0.499245
0.404259
0.29003
0.188952
0.115219
0.0672032
0.0381978
0.0220706
0.287514
0.444526
0.477
0.445425
0.363474
0.264778
0.176633
0.11077
0.0663408
0.0384436
0.0223278
0.273161
0.40322
0.430919
0.401385
0.328768
0.241921
0.164033
0.105039
0.0643806
0.0382339
0.023112
0.262386
0.370574
0.393757
0.365322
0.299417
0.221683
0.152161
0.099196
0.0621683
0.0378079
0.0232772
0.253266
0.343406
0.363302
0.336183
0.275635
0.204984
0.142033
0.0939362
0.0599428
0.0370875
0.0229311
0.245414
0.320331
0.338031
0.312525
0.256528
0.191557
0.133757
0.0894703
0.0578682
0.036271
0.0229181
0.239245
0.300947
0.316956
0.293025
0.24098
0.180734
0.127101
0.0858467
0.0561602
0.0356234
0.0227888
0.234346
0.284395
0.299342
0.277127
0.22863
0.17235
0.12207
0.0831882
0.0549872
0.0352512
0.0226756
0.230187
0.269933
0.284573
0.264491
0.219341
0.16639
0.118713
0.0815705
0.0543922
0.0351449
0.0228463
0.227098
0.257464
0.272111
0.254358
0.212457
0.162448
0.116853
0.0809524
0.054401
0.0353527
0.022988
0.225061
0.246474
0.261631
0.246529
0.207915
0.160573
0.116588
0.0814446
0.0551162
0.035953
0.0233722
0.223967
0.236472
0.252789
0.240931
0.20589
0.161041
0.118189
0.0832609
0.0566895
0.0370375
0.0240308
0.224035
0.227392
0.24495
0.237011
0.206305
0.163966
0.121839
0.0865961
0.0593127
0.0387766
0.0250738
0.225403
0.219028
0.237568
0.233673
0.207885
0.168989
0.127762
0.0917925
0.0632983
0.041506
0.0267787
0.228394
0.211025
0.230351
0.230644
0.210337
0.175483
0.135539
0.0987701
0.0687679
0.0455194
0.0294207
0.233638
0.203209
0.222833
0.227396
0.212956
0.182815
0.144888
0.107724
0.0762177
0.0513639
0.0336008
0.242989
0.194928
0.214865
0.22295
0.214361
0.189651
0.155043
0.118711
0.0863374
0.0599717
0.0402843
0.25554
0.1864
0.204212
0.217154
0.214171
0.195206
0.165317
0.131628
0.0997541
0.0724573
0.0508706
0.274153
0.191294
0.209212
0.209683
0.207529
0.194615
0.172172
0.144388
0.115728
0.0892146
0.0666322
0.931692
1.39004
1.13003
0.862041
0.601325
0.363255
0.208882
0.117648
0.0656618
0.0369064
0.0214468
0.789856
1.05004
1.03976
0.888111
0.688001
0.468528
0.282343
0.156867
0.0870344
0.0474046
0.0266113
0.488369
0.808892
0.908666
0.849093
0.711369
0.529634
0.347208
0.204934
0.115196
0.063269
0.0349731
0.370763
0.874545
0.874236
0.817806
0.711248
0.560933
0.394027
0.247563
0.147034
0.0839953
0.0473936
0.423887
1.0255
1.00645
0.862307
0.72717
0.582652
0.427629
0.283815
0.176297
0.107524
0.0634901
0.447639
1.05658
1.25312
1.03178
0.800626
0.617832
0.457272
0.31469
0.203613
0.129369
0.0816956
0.446166
0.984855
1.44911
1.35658
0.98756
0.699001
0.497001
0.343891
0.228843
0.150172
0.0998902
0.447407
0.940959
1.43084
1.65404
1.28006
0.849771
0.561962
0.377141
0.252674
0.169851
0.116816
0.449101
0.913236
1.39137
1.82201
1.63869
1.08685
0.667801
0.421783
0.277123
0.188337
0.132949
0.448843
0.885325
1.34653
1.82215
1.91525
1.37445
0.816807
0.482584
0.30434
0.20593
0.147984
0.446987
0.853733
1.2933
1.76751
2.06428
1.65745
0.995073
0.558401
0.335138
0.223069
0.162039
0.444708
0.817756
1.22858
1.67586
2.05406
1.85877
1.16684
0.637529
0.366683
0.239426
0.174915
0.444178
0.785785
1.15643
1.55795
1.95121
1.94073
1.29077
0.701567
0.393316
0.25397
0.186831
0.445974
0.756462
1.07914
1.42118
1.7881
1.9039
1.3393
0.733642
0.409216
0.265532
0.198592
0.451927
0.73469
1.00563
1.2754
1.57377
1.75874
1.30269
0.722765
0.411316
0.27396
0.21054
0.459757
0.720013
0.937463
1.13233
1.3264
1.46542
1.21541
0.674416
0.400534
0.281036
0.223845
0.468154
0.708609
0.867856
0.987329
1.09088
1.14751
1.04481
0.63412
0.388096
0.292011
0.241359
0.479014
0.705555
0.805923
0.855174
0.88854
0.902932
0.851833
0.614496
0.392785
0.315196
0.265812
0.496938
0.72132
0.768897
0.760036
0.748268
0.748114
0.731096
0.622111
0.44858
0.366994
0.31158
0.530757
0.775239
0.786005
0.733197
0.693553
0.694345
0.707297
0.675706
0.568714
0.456837
0.370078
0.600698
0.931509
0.944513
0.861442
0.787231
0.759834
0.750175
0.710104
0.626698
0.498029
0.372381
0.718766
1.20837
1.2498
1.15271
0.978868
0.791203
0.61305
0.510065
0.40826
0.316058
0.23497
0.470047
0.814419
0.855083
0.672564
0.512384
0.399785
0.314934
0.252565
0.202475
0.160831
0.125372
0.314318
0.251646
0.222449
0.206705
0.198193
0.190016
0.177793
0.160033
0.137775
0.113523
0.0898265
0.218921
0.228113
0.0914456
0.0431704
0.0229383
0.015596
0.0128442
0.0116776
0.0111099
0.010784
0.0105425
0.260756
0.364298
0.0924121
0.0542974
0.02589
0.016585
0.0128633
0.0112973
0.0105247
0.0100776
0.00977485
0.301899
0.377033
0.111195
0.0641671
0.0276913
0.0176109
0.0129689
0.0110421
0.010079
0.00951373
0.00910773
0.334508
0.353971
0.120861
0.0682968
0.0284384
0.0184114
0.0130236
0.0108416
0.00972439
0.00906388
0.00857798
0.355119
0.338925
0.125919
0.068005
0.0291246
0.0189154
0.0130037
0.0106703
0.00943517
0.00870689
0.00818218
0.363842
0.334562
0.132345
0.0683033
0.0301249
0.0192102
0.0129807
0.010529
0.00919918
0.00842121
0.00787917
0.361612
0.338518
0.141239
0.0707998
0.0321053
0.0194693
0.0130274
0.0104286
0.00901222
0.00818934
0.00761974
0.349805
0.349204
0.151974
0.0750151
0.034752
0.0201501
0.013247
0.0103797
0.00887692
0.0080065
0.00741509
0.330669
0.364695
0.165657
0.0812452
0.038222
0.0213077
0.0137438
0.0104626
0.00881968
0.0078728
0.00724807
0.306278
0.383264
0.184752
0.0906761
0.04317
0.023272
0.0145879
0.0107164
0.00885819
0.00780911
0.00713127
0.277832
0.4057
0.209429
0.103726
0.0499574
0.0262679
0.0158942
0.0112076
0.0090155
0.00781783
0.00706646
0.247366
0.434277
0.239415
0.120334
0.0586541
0.0303941
0.0177719
0.0120056
0.00933016
0.00791757
0.0070648
0.218407
0.467299
0.276747
0.142065
0.0701144
0.036072
0.0204722
0.0132412
0.00987238
0.00814394
0.00714345
0.193879
0.501951
0.323981
0.171542
0.0859128
0.0440917
0.0244172
0.0151359
0.0107595
0.00855798
0.00733431
0.177299
0.544949
0.382643
0.210042
0.106965
0.0550443
0.0300043
0.0179437
0.0121474
0.00924887
0.00768803
0.173389
0.597275
0.456611
0.261631
0.135876
0.0703616
0.0380292
0.0221246
0.0143064
0.0103724
0.00829096
0.182234
0.651064
0.547789
0.332719
0.177505
0.0928599
0.0500381
0.0285436
0.0177315
0.012212
0.00930338
0.199261
0.700099
0.652349
0.428635
0.237906
0.126633
0.0684979
0.0386633
0.0232976
0.0152893
0.011032
0.217114
0.730008
0.753289
0.550544
0.325623
0.178911
0.0981782
0.0554332
0.032801
0.0206924
0.0141267
0.228442
0.729549
0.821156
0.683202
0.446346
0.2603
0.147814
0.0848669
0.0501242
0.0308622
0.0200976
0.227847
0.683487
0.825401
0.786938
0.590716
0.381584
0.231948
0.139005
0.0838738
0.0515787
0.0326963
0.235008
0.623962
0.786548
0.831001
0.725939
0.541418
0.367645
0.238443
0.151775
0.0963522
0.0615157
0.21555
0.503519
0.607634
0.684585
0.68837
0.616759
0.496034
0.368736
0.26077
0.179618
0.121473
0.265268
0.649972
0.681136
0.699909
0.668303
0.604337
0.513965
0.41716
0.326464
0.248958
0.18469
0.170936
0.17895
0.0823179
0.0366965
0.0208072
0.0151958
0.0130999
0.0122354
0.0118778
0.0117595
0.0117661
0.175456
0.156307
0.065992
0.0379107
0.0228393
0.0164469
0.0139359
0.0129575
0.0126221
0.0126023
0.0127647
0.198248
0.170406
0.0603559
0.0411474
0.0251267
0.0183207
0.0152683
0.0140448
0.0136484
0.0136888
0.0140098
0.219886
0.161636
0.0580834
0.0432307
0.0258982
0.0191817
0.016094
0.0149118
0.0146431
0.0148633
0.0154278
0.237439
0.14244
0.0570987
0.0437309
0.0264998
0.0200358
0.0166854
0.015327
0.0149279
0.0150831
0.0156421
0.25178
0.125578
0.0563088
0.0430453
0.0267042
0.0206578
0.0171297
0.0156626
0.0151532
0.0152321
0.015733
0.264145
0.113135
0.0554783
0.0419535
0.0267194
0.0210926
0.01746
0.0159667
0.0153909
0.0154138
0.0158358
0.274245
0.104012
0.0545395
0.040854
0.0267294
0.0213965
0.0177509
0.0162779
0.0157017
0.0157614
0.0162524
0.28351
0.0973755
0.0537397
0.0400557
0.0269294
0.0216483
0.0180466
0.0165998
0.0160547
0.0161926
0.0167991
0.292788
0.0928214
0.0532531
0.0395742
0.0273273
0.0219432
0.0183748
0.016932
0.0164197
0.0166597
0.0174841
0.302902
0.0900755
0.0532222
0.0395471
0.0279163
0.0223455
0.0187547
0.0172728
0.0167615
0.0170548
0.0179532
0.313497
0.0885016
0.0534728
0.039897
0.0286944
0.0228728
0.0191962
0.0176229
0.0170628
0.0173461
0.0182805
0.32416
0.0886594
0.0540736
0.0406142
0.0297261
0.0235556
0.0197254
0.0179924
0.017325
0.0175237
0.018428
0.333474
0.0915751
0.0553707
0.0417133
0.0311464
0.0245018
0.0204487
0.0184472
0.0176066
0.017644
0.0184146
0.341517
0.0958925
0.0571529
0.0430891
0.0328929
0.0257629
0.0214219
0.0190528
0.0179612
0.0177614
0.0182964
0.348442
0.101803
0.0595796
0.0448098
0.0349532
0.0274231
0.0227203
0.0198985
0.0184569
0.0179383
0.0181481
0.354377
0.109631
0.0629517
0.0470043
0.037347
0.0295649
0.02445
0.0211122
0.0192103
0.0182827
0.0180888
0.359401
0.119162
0.0675207
0.0498253
0.0401059
0.0322374
0.0267266
0.0228543
0.0203995
0.0189667
0.0182877
0.363623
0.130376
0.0736679
0.0535548
0.0433502
0.0354847
0.0296646
0.0253103
0.0222688
0.0202559
0.0190222
0.367216
0.143479
0.0819601
0.0586937
0.0473713
0.0393975
0.0333732
0.0286635
0.0251048
0.0225124
0.0206978
0.370435
0.158412
0.0930424
0.0660134
0.0527466
0.0442291
0.0379752
0.0330511
0.0291502
0.0261146
0.0238183
0.373895
0.174546
0.107286
0.0765002
0.0604482
0.0505741
0.0436999
0.0384901
0.0343821
0.0311237
0.0285879
0.377701
0.193599
0.126308
0.0919697
0.0723321
0.0599095
0.0514313
0.0453061
0.0407217
0.037242
0.0346058
0.395441
0.222109
0.168521
0.139175
0.119421
0.103856
0.0959907
0.0931749
0.0930734
0.0938788
0.0936397
0.0198232
0.0150553
0.0158096
0.0207903
0.0473128
0.0771472
0.0960418
0.108896
0.119536
0.0444736
0.0269713
0.0243018
0.0457391
0.0789412
0.107991
0.137304
0.162952
0.182438
0.0571269
0.0349998
0.0310935
0.0606677
0.101615
0.131827
0.153385
0.168201
0.181085
0.0653911
0.0419062
0.0379588
0.070957
0.109933
0.133002
0.146661
0.156638
0.163291
0.0539136
0.0835843
0.101471
0.112674
0.120554
0.123777
0.123565
0.123387
0.125751
0.0721874
0.101047
0.128527
0.153573
0.172196
0.187178
0.200412
0.208157
0.198402
0.0901674
0.119438
0.14089
0.158359
0.17347
0.188237
0.201214
0.208978
0.197832
0.0961307
0.11919
0.135079
0.148796
0.157001
0.165072
0.173066
0.182597
0.174622
0.00442726
0.00460078
0.00461606
0.00210583
0.0475093
0.00438535
0.0109937
0.00454525
0.00437885
0.00425249
0.0468626
0.00455617
0.00374225
0.00328551
0.00448382
0.00430327
0.00331532
0.00208939
0.00429267
0.00424757
0.00411411
0.00469643
0.00466647
0.0186157
0.00449286
0.0032978
0.00378977
0.0106918
0.075874
0.0488525
0.00341133
0.00410938
0.00300104
0.00453533
0.00427553
0.00459198
0.0173217
0.0044881
0.00292943
0.00439237
0.00649986
0.00454464
0.00664453
0.00465962
0.060118
0.0119163
0.00323298
0.0183709
0.00429859
0.00433953
0.049068
0.00439756
0.0127669
0.00669681
0.00433179
0.00412065
0.00456736
0.00440317
0.0778768
0.00404757
0.00521754
0.010074
0.0531201
0.00790029
0.00799497
0.00425934
0.0524098
0.0043174
0.00460132
0.00424417
0.00329664
0.00433544
0.00310456
0.00467397
0.00407318
0.00429341
0.0040608
0.00459795
0.00919687
0.0730887
0.0464896
0.00632805
0.0044952
0.00462609
0.00438003
0.00312917
0.0951857
0.00804502
0.00310376
0.0187624
0.00454325
0.00441304
0.00723443
0.00441253
0.0719377
0.027067
0.00259806
0.0039659
0.00343997
0.00441188
0.00469095
0.018801
0.00417408
0.00402574
0.00287437
0.00455316
0.00305028
0.00464665
0.00437414
0.00418248
0.00450686
0.00455981
0.00431771
0.00224565
0.00423086
0.00442387
0.0043814
0.00431696
0.00449591
0.00414274
0.00229071
0.00458332
0.00535857
0.00325827
0.0111346
0.00412046
0.0589083
0.00304749
0.00322403
0.00354784
0.00445085
0.00403902
0.0181852
0.00430145
0.00461433
0.00456354
0.00392411
0.00427418
0.0499858
0.00446422
0.00688505
0.00411685
0.0244049
0.00402542
0.00437435
0.00331296
0.00440743
0.00431069
0.00432805
0.0042417
0.00427671
0.00441747
0.00354329
0.00457032
0.00223774
0.00361368
0.00378724
0.00381596
0.00320795
0.00436137
0.00364283
0.00425713
0.00432584
0.00443275
0.053588
0.00589662
0.00353256
0.00428764
0.00421586
0.00787338
0.00309093
0.00309887
0.00450128
0.00405848
0.00409855
0.00396472
0.0031635
0.00358453
0.060908
0.00393055
0.00430186
0.0046112
0.0046593
0.0131537
0.0045005
0.00386214
0.00425125
0.0043019
0.00458798
0.0123528
0.00421435
0.00341143
0.00427296
0.00642224
0.00460934
0.00440137
0.00435855
0.00352293
0.00363736
0.00467918
0.00326206
0.0043371
0.0041025
0.00350406
0.00462734
0.00829866
0.00439597
0.00321638
0.00435066
0.00433928
0.021922
0.0043947
0.00401439
0.00423303
0.00448997
0.00448198
0.00451014
0.0037075
0.00427517
0.00319183
0.00294948
0.00218765
0.00263358
0.0042224
0.00321761
0.0044079
0.00949558
0.00570796
0.00396421
0.0229426
0.00399462
0.00425684
0.00426888
0.00456686
0.00351078
0.0734426
0.0506169
0.00464585
0.00456071
0.00454809
0.00372713
0.00842888
0.00401672
0.00588276
0.00473459
0.0046766
0.00451716
0.00360199
0.0299747
0.0586261
0.00358768
0.0221549
0.00516405
0.00429909
0.00395742
0.00436506
0.00413956
0.00447417
0.00319816
0.0042444
0.0033913
0.00452261
0.00432679
0.0045744
0.00450489
0.00306577
0.0041182
0.00472655
0.00559397
0.00372497
0.0211137
0.00431982
0.00432987
0.00313073
0.00439035
0.0043294
0.00331972
0.00444678
0.00427842
0.00318354
0.00437987
0.00460159
0.0467235
0.0474995
0.00395764
0.00439795
0.0849657
0.00459072
0.00425202
0.00668949
0.00461884
0.0113816
0.00436415
0.00290864
0.0046788
0.00435746
0.00419244
0.00456478
0.00427367
0.00334806
0.00444425
0.00244604
0.00437879
0.0492998
0.00415025
0.00418396
0.00459904
0.015804
0.0045457
0.00435356
0.00717069
0.00456622
0.00410001
0.00300077
0.00457875
0.00410766
0.00370659
0.00323622
0.00413091
0.00455637
0.00424831
0.0364916
0.00435736
0.00339294
0.00551614
0.00420514
0.00445134
0.0037166
0.00424074
0.0268054
0.0043525
0.0538007
0.00377131
0.00464986
0.00358484
0.0397116
0.00342445
0.00458691
0.00447261
0.00395609
0.00396132
0.021132
0.00432782
0.00570546
0.0195693
0.0159696
0.00453544
0.00437872
0.0147201
0.0631601
0.00829414
0.00391254
0.00374223
0.00416708
0.00394571
0.00468917
0.00298705
0.00399905
0.00466074
0.0348167
0.00386318
0.0033232
0.00451789
0.00451152
0.00431454
0.0032487
0.00308827
0.00319354
0.0102496
0.00482378
0.00444037
0.0124187
0.0347301
0.00319907
0.00388004
0.00461033
0.00391832
0.00425948
0.00437868
0.00424894
0.0388725
0.00438755
0.00321713
0.0044144
0.00339871
0.0503238
0.00236017
0.00320326
0.00820188
0.00340049
0.00442744
0.00533337
0.00310608
0.0046674
0.0519578
0.00801541
0.00447754
0.00428595
0.00462302
0.00561387
0.00317888
0.00441084
0.00466161
0.0068459
0.00287805
0.00695109
0.00784711
0.00728964
0.00433361
0.0363912
0.0042369
0.00427818
0.0037974
0.00373076
0.00410862
0.00408048
0.00424589
0.00484778
0.00314143
0.00495204
0.0325765
0.0032129
0.0120462
0.00413207
0.00398599
0.00416516
0.00463177
0.00482198
0.00474797
0.00907564
0.00448516
0.00322021
0.00342801
0.00410591
0.00428563
0.00316229
0.0255772
0.048798
0.00326924
0.00468849
0.00396162
0.0939999
0.00211912
0.00239671
0.00418988
0.00425394
0.00430621
0.00344896
0.00434553
0.00392972
0.00443885
0.00461314
0.00449856
0.0042565
0.00440446
0.0109085
0.00310132
0.00327761
0.00491629
0.00458994
0.0043409
0.0611123
0.00320222
0.00394935
0.00422234
0.00817084
0.00763646
0.00545505
0.00546768
0.00435216
0.00393595
0.00313868
0.00421627
0.00516579
0.00420723
0.00458702
0.00432865
0.00557869
0.00359129
0.00425834
0.00445073
0.00412924
0.016621
0.00446761
0.00464781
0.00333526
0.0306779
0.00404769
0.0032892
0.00434123
0.00335925
0.00439943
0.00420604
0.00440367
0.00338203
0.00327058
0.00426317
0.00339699
0.00400206
0.00470386
0.00375318
0.00370546
0.00453868
0.00453392
0.0363757
0.00376934
0.00285457
0.00435281
0.0173973
0.00461935
0.0373541
0.00435324
0.00346134
0.00519258
0.00472968
0.0499943
0.00497258
0.00338577
0.00445192
0.00360771
0.00412109
0.00459983
0.00442732
0.00457263
0.00417984
0.0374353
0.00451516
0.00435492
0.0122174
0.00443622
0.00926216
0.00422645
0.0128555
0.00331557
0.00312911
0.00467879
0.00447621
0.00463646
0.00635985
0.00365503
0.0045012
0.00448858
0.00325019
0.00461741
0.00216575
0.00460759
0.0377596
0.00423663
0.00404172
0.00293644
0.00333677
0.0129337
0.0393585
0.00415944
0.00411463
0.00431468
0.00460765
0.00316085
0.00333612
0.00423567
0.00355516
0.0317798
0.0300443
0.0044915
0.00434372
0.00459832
0.00429646
0.0530858
0.00422968
0.00454294
0.00437554
0.0477099
0.00433013
0.00302036
0.00328509
0.00882446
0.0332396
0.00443034
0.00451108
0.00446364
0.00505754
0.00434355
0.0039541
0.00318603
0.00409946
0.00476035
0.00753977
0.00463926
0.00467381
0.0706532
0.00440909
0.00354562
0.00320184
0.00528324
0.00383233
0.0039266
0.00361668
0.00422347
0.00443626
0.00448944
0.0249515
0.00299326
0.00389981
0.00425012
0.00450057
0.00652457
0.00423547
0.0045156
0.00421191
0.00430814
0.00316652
0.00302207
0.00525318
0.00567694
0.00401672
0.00521451
0.00429188
0.0100626
0.00428258
0.00445293
0.029561
0.0293293
0.00438315
0.00439154
0.00392268
0.00416253
0.00433495
0.00565157
0.00460756
0.00417847
0.00328226
0.00292205
0.00382196
0.00313061
0.00318317
0.00549716
0.0254665
0.00495228
0.00625708
0.00354058
0.00342537
0.00458891
0.00349142
0.00462129
0.00416506
0.00560213
0.00394122
0.00420955
0.00436986
0.0034366
0.00676659
0.0296582
0.00361295
0.0052831
0.00442422
0.00523163
0.00454999
0.00429577
0.00426851
0.00343457
0.00425952
0.00437251
0.0041844
0.00459375
0.00393723
0.00622041
0.0221398
0.00428541
0.00422555
0.00399151
0.00787722
0.00450325
0.0156526
0.00431059
0.00529772
0.033531
0.00442919
0.00349141
0.00465984
0.00301623
0.00507455
0.00313959
0.0257545
0.00365054
0.00427682
0.00463643
0.00372598
0.00321217
0.00422186
0.0590359
0.00437067
0.00408463
0.0046326
0.00374792
0.00419585
0.00322422
0.004557
0.00440206
0.00440632
0.00380625
0.00442226
0.00456223
0.00332258
0.00437475
0.00551199
0.00321817
0.00408045
0.00370731
0.00544152
0.00289783
0.00408111
0.0037331
0.0036213
0.00738472
0.00302762
0.011298
0.00446802
0.00334529
0.00448935
0.00433645
0.00668938
0.00450467
0.00338722
0.00328054
0.004329
0.00417882
0.00413492
0.00407733
0.00458455
0.0562497
0.00624653
0.0362927
0.00414961
0.00397769
0.00607869
0.00377785
0.00453681
0.00347616
0.00369424
0.00289457
0.00452545
0.00333144
0.0308369
0.00454954
0.00929722
0.00350543
0.0047882
0.00509706
0.0043828
0.00420583
0.00421938
0.0033653
0.00439406
0.00320047
0.0045727
0.00302323
0.00431631
0.00292604
0.00373755
0.025275
0.00427378
0.00428994
0.0224683
0.012649
0.00446211
0.00320108
0.00385497
0.00467672
0.00516268
0.0038444
0.00430437
0.00421424
0.00294328
0.0049886
0.00428663
0.00437059
0.00441422
0.00336148
0.00364279
0.00469053
0.00448465
0.00455987
0.0314923
0.0355393
0.00360484
0.00457781
0.00335372
0.00446828
0.00455625
0.0045784
0.00462559
0.00447955
0.00461811
0.00316419
0.00515991
0.0106395
0.003087
0.00433824
0.00442988
0.00449666
0.00376948
0.0335547
0.00459561
0.004097
0.00352561
0.0168733
0.0211946
0.00470217
0.00392069
0.00364669
0.00443327
0.00446175
0.010772
0.00421887
0.00456666
0.0043917
0.0091236
0.00399949
0.00390387
0.00455632
0.00409608
0.00651748
0.00365707
0.00456504
0.00309886
0.0053829
0.00440978
0.00395999
0.00464037
0.00427995
0.00206299
0.00294213
0.00437317
0.00460078
0.00418331
0.00470545
0.00434015
0.00459247
0.00278628
0.00344503
0.0088744
0.0148448
0.00651267
0.00454841
0.051482
0.00466974
0.00430546
0.00539651
0.00448555
0.00441729
0.00441609
0.00302884
0.0073325
0.00362059
0.00441441
0.00296463
0.00442532
0.004688
0.00434534
0.00438807
0.00437552
0.00449446
0.00455981
0.00435314
0.0671436
0.00438134
0.00425563
0.00442457
0.0180497
0.0042747
0.00450652
0.00486879
0.0620162
0.00422923
0.00449894
0.00291681
0.00320025
0.00465166
0.00454032
0.00420443
0.00400804
0.00939554
0.00460009
0.0120915
0.00291842
0.0256771
0.00298317
0.00457943
0.00324318
0.00564098
0.00444163
0.00455264
0.00437278
0.00460843
0.00395338
0.00980598
0.00422513
0.00574144
0.047492
0.00472223
0.00394021
0.00573347
0.00466364
0.00455907
0.00314227
0.00285841
0.00327924
0.00439825
0.0276362
0.00431559
0.0033287
0.00431298
0.00314048
0.00313042
0.00329373
0.0035477
0.0042003
0.00452781
0.0465147
0.00438009
0.0620492
0.00420405
0.00299146
0.0042681
0.00421007
0.05408
0.00438229
0.00460399
0.00352617
0.00885606
0.00772528
0.0034319
0.00329509
0.00331444
0.00458936
0.0398615
0.00451953
0.00429751
0.0631736
0.00439948
0.00545308
0.00449365
0.0157347
0.00298726
0.00675972
0.0046041
0.00342632
0.0046464
0.00440653
0.00424088
0.00243844
0.00425772
0.00445968
0.00434483
0.00453993
0.00454969
0.00475842
0.00454143
0.00418715
0.00696511
0.00356091
0.00400961
0.00461008
0.00886566
0.00300188
0.00460139
0.00467966
0.00408837
0.00637232
0.0505296
0.00397246
0.00344722
0.00410233
0.00434874
0.00309477
0.00455168
0.00423072
0.0101915
0.0045549
0.0699902
0.00911472
0.0243649
0.00455298
0.00454923
0.00379905
0.043071
0.00335516
0.00313756
0.00467581
0.00307368
0.0194353
0.00456219
0.00402829
0.00320714
0.00392345
0.0326486
0.00368113
0.00445154
0.00432858
0.00426499
0.00420164
0.00721725
0.00288686
0.0127172
0.0525891
0.00460219
0.00305106
0.00381927
0.00513327
0.0155726
0.00425326
0.00439379
0.00406538
0.00313728
0.00454421
0.00466288
0.00467859
0.00336487
0.00413299
0.00461164
0.00371919
0.00665122
0.00320931
0.00452307
0.00791622
0.00407096
0.00407676
0.00400782
0.0045559
0.00431622
0.00447191
0.0139821
0.00429778
0.00473407
0.00399958
0.00340226
0.00450523
0.00417725
0.00450324
0.00437818
0.0033702
0.0107642
0.00732768
0.0550157
0.00956643
0.0411337
0.00420866
0.00442295
0.00248322
0.00462853
0.00324983
0.00680149
0.00430417
0.00507422
0.00388902
0.0286547
0.00418214
0.0032012
0.00454984
0.0492736
0.0046957
0.0355013
0.00411827
0.00475866
0.00504516
0.0105475
0.00417965
0.00553123
0.00540788
0.00446739
0.0207353
0.00558642
0.0243649
0.00353091
0.0023719
0.0125878
0.0047189
0.00461196
0.00372219
0.00476173
0.00344426
0.00331598
0.00320329
0.00390643
0.00310368
0.0538414
0.00437646
0.00430675
0.00423773
0.00457312
0.00289303
0.00340619
0.00425362
0.00332169
0.0433902
0.00438156
0.0569372
0.00750013
0.0044829
0.00537294
0.00378919
0.00314932
0.00318088
0.0258027
0.00442362
0.00452604
0.052321
0.0043756
0.00458711
0.00355613
0.0045436
0.00454286
0.0306474
0.00459851
0.0314122
0.00397976
0.00381187
0.00428721
0.00430391
0.00598672
0.00323407
0.0124505
0.00444562
0.0028945
0.00517147
0.00305661
0.00328749
0.00527999
0.00553879
0.00424083
0.0080365
0.0150995
0.00406575
0.00431995
0.00349868
0.00381188
0.00471993
0.0035025
0.0507666
0.00425632
0.00468949
0.00450567
0.00406072
0.00286328
0.00320787
0.00328673
0.078654
0.00472148
0.0058783
0.00555648
0.00457718
0.00390634
0.00424481
0.00422508
0.0672055
0.00456889
0.0186024
0.0237988
0.0045643
0.00449469
0.00464577
0.0314914
0.0333015
0.0213201
0.00335268
0.00456841
0.00428289
0.00325266
0.0413304
0.00658114
0.00302928
0.00434301
0.00616213
0.0055065
0.00535305
0.00416154
0.0136271
0.0276596
0.00405282
0.00382737
0.00430537
0.00437162
0.030508
0.00319553
0.0037174
0.00460011
0.00466312
0.00411085
0.0481332
0.00313217
0.00292569
0.00781339
0.00493054
0.00437517
0.0139
0.00535965
0.00462084
0.00305126
0.00350023
0.00412471
0.0564477
0.00453419
0.00442585
0.00426756
0.00567532
0.0031047
0.00435636
0.00499754
0.00461398
0.00455962
0.00468819
0.00330136
0.00442866
0.00748039
0.00415338
0.00455776
0.0496165
0.00442983
0.00354112
0.00355547
0.00437814
0.00351805
0.00534871
0.00452414
0.00456481
0.00448269
0.00302738
0.00449623
0.00428162
0.00440633
0.00356221
0.0062696
0.00313032
0.00709331
0.00430054
0.00547212
0.00412724
0.00467577
0.00426432
0.00458659
0.00315013
0.00414061
0.00325935
0.004123
0.00421025
0.00450321
0.00444775
0.0313768
0.00546816
0.0162275
0.00468828
0.00304232
0.0621281
0.00325859
0.00291495
0.00439791
0.00548829
0.00464965
0.00543963
0.00319428
0.00521477
0.00375857
0.0030399
0.00450132
0.067554
0.00309328
0.00415124
0.00408831
0.00399741
0.00361154
0.00279819
0.0043276
0.00306824
0.0560321
0.02901
0.00448582
0.00429917
0.00438422
0.0110111
0.00401687
0.00454991
0.00426278
0.00462879
0.00446136
0.00455676
0.00440231
0.0046498
0.0129185
0.00237004
0.00433563