/*--------------------------------*- C++ -*----------------------------------*\
| =========                 |                                                 |
| \\      /  F ield         | OpenFOAM: The Open Source CFD Toolbox           |
|  \\    /   O peration     | Version:  3.0.1                                 |
|   \\  /    A nd           | Web:      www.OpenFOAM.org                      |
|    \\/     M anipulation  |                                                 |
\*---------------------------------------------------------------------------*/
FoamFile
{
    version     2.0;
    format      ascii;
    class       volVectorField;
    location    "0.911086";
    object      U;
}
// * * * * * * * * * * * * * * * * * * * * * * * * * * * * * * * * * * * * * //

dimensions      [0 1 -1 0 0 0 0];

internalField   nonuniform List<vector> 
21246
(
(5.48711 -0.831089 -1.64935e-18)
(4.04161 -0.593245 7.31107e-19)
(4.04844 -0.445612 5.62953e-19)
(3.76428 -0.395113 2.43281e-20)
(3.42895 -0.359347 1.22162e-19)
(3.11635 -0.341347 -4.37109e-20)
(2.85124 -0.337815 1.1696e-19)
(2.62695 -0.343262 -7.98081e-20)
(2.43236 -0.356184 6.68379e-20)
(2.26052 -0.374106 -6.15945e-21)
(2.11385 -0.388026 0)
(3.83415 -0.783846 0)
(2.4865 -0.822349 -6.08371e-19)
(3.09939 -0.985604 -3.67438e-19)
(3.26769 -0.987094 1.70541e-19)
(3.20792 -0.904176 -4.34114e-19)
(3.04991 -0.782071 1.45976e-19)
(2.85286 -0.673132 -2.80004e-19)
(2.65787 -0.599633 0)
(2.47635 -0.556831 -6.74356e-21)
(2.31112 -0.536821 5.99199e-20)
(2.17056 -0.528815 0)
(2.54974 0.487481 4.92675e-19)
(1.76455 -0.150348 1.56768e-21)
(2.28218 -0.756209 0)
(2.56491 -1.0223 0)
(2.71507 -1.11225 1.85486e-19)
(2.76632 -1.07265 -1.73662e-19)
(2.71929 -0.960215 2.07019e-19)
(2.60387 -0.835372 0)
(2.46995 -0.747691 0)
(2.33263 -0.694422 -5.31319e-20)
(2.21446 -0.670725 6.32094e-20)
(2.1656 1.81738 -3.10857e-19)
(1.76537 0.748862 6.37827e-19)
(1.92626 -0.0940444 0)
(2.08781 -0.623311 0)
(2.26345 -0.953871 -6.27027e-19)
(2.41078 -1.09663 8.25716e-19)
(2.48253 -1.08788 2.01124e-19)
(2.47376 -0.997571 -2.61022e-19)
(2.41197 -0.898417 1.11804e-19)
(2.32157 -0.825654 -2.20909e-20)
(2.2417 -0.79031 -8.19355e-20)
(2.37569 2.75701 4.78576e-18)
(2.01741 1.56579 -3.62235e-18)
(1.90777 0.64152 0)
(1.91907 -0.0558185 -1.88469e-18)
(2.01119 -0.578159 1.69622e-19)
(2.13924 -0.9036 1.74184e-18)
(2.24948 -1.0408 -5.31e-19)
(2.30975 -1.04137 2.37593e-19)
(2.3177 -0.979823 -2.07564e-19)
(2.28322 -0.913504 -9.18724e-20)
(2.2467 -0.874618 6.7228e-20)
(2.86272 3.33981 -4.12445e-18)
(2.35755 2.25394 0)
(2.08098 1.30441 0)
(1.95273 0.510612 -1.62189e-18)
(1.93527 -0.131148 1.22546e-18)
(1.99279 -0.594522 -6.68608e-19)
(2.08176 -0.868036 1.00796e-18)
(2.16307 -0.977172 -3.31487e-19)
(2.21492 -0.98184 -4.20432e-19)
(2.22896 -0.945171 3.36307e-19)
(2.23297 -0.917724 -7.52468e-20)
(3.33449 3.70923 3.66202e-18)
(2.69823 2.83148 -2.68909e-18)
(2.33584 1.87896 -1.70685e-18)
(2.0906 1.03681 3.07037e-18)
(1.96766 0.320686 -8.24062e-19)
(1.9434 -0.240081 -9.66501e-20)
(1.98398 -0.622802 0)
(2.05334 -0.833626 0)
(2.12288 -0.913729 5.08999e-20)
(2.17212 -0.920683 -1.69217e-19)
(2.21089 -0.914041 2.49908e-19)
(3.48097 3.80866 -2.89728e-19)
(2.96086 3.25487 -4.94152e-18)
(2.60093 2.36662 3.37925e-18)
(2.27135 1.52638 -1.52237e-18)
(2.05979 0.76424 6.93832e-19)
(1.95638 0.132256 2.78938e-19)
(1.9389 -0.336086 -1.24481e-18)
(1.97876 -0.634241 0)
(2.04701 -0.787454 -3.86969e-19)
(2.11816 -0.843689 -1.01309e-19)
(2.18535 -0.862437 0)
(3.62717 3.79772 1.98703e-19)
(3.21293 3.51578 -1.99973e-18)
(2.87097 2.78063 1.73521e-18)
(2.48132 1.98402 -3.09988e-19)
(2.19222 1.1984 4.50048e-19)
(2.01218 0.515465 1.10327e-20)
(1.93175 -0.01924 1.10227e-18)
(1.93156 -0.389929 -6.56923e-19)
(1.98576 -0.610038 -3.76077e-19)
(2.06752 -0.717047 1.01398e-18)
(2.15951 -0.765651 -3.5234e-19)
(3.7462 3.74042 -3.3647e-18)
(3.40647 3.64173 1.90197e-18)
(3.11985 3.09778 -3.29931e-18)
(2.70838 2.39207 1.54194e-18)
(2.354 1.61778 -1.30115e-18)
(2.09972 0.908113 1.87108e-18)
(1.95416 0.325835 -8.1478e-20)
(1.9077 -0.103673 -1.19186e-18)
(1.93921 -0.383399 4.20483e-19)
(2.02229 -0.540833 -4.5423e-19)
(2.13398 -0.623354 3.36983e-19)
(3.82755 3.66757 7.1765e-19)
(3.53115 3.67873 -2.09337e-18)
(3.31897 3.29596 5.72109e-20)
(2.92527 2.72529 1.79175e-18)
(2.5294 2.00639 0)
(2.21041 1.30105 -8.72535e-19)
(2.00206 0.693238 1.3158e-18)
(1.90712 0.221133 -2.6994e-20)
(1.9107 -0.10849 -1.09264e-18)
(1.98814 -0.31362 6.53263e-20)
(2.11704 -0.435442 0)
(3.87286 3.58503 -3.48116e-19)
(3.60816 3.66748 2.02159e-18)
(3.45889 3.39314 -5.72599e-20)
(3.10563 2.97055 -3.45781e-18)
(2.69946 2.34406 1.27409e-18)
(2.33494 1.67645 -1.74087e-18)
(2.0733 1.06971 4.51299e-19)
(1.93313 0.575216 1.07826e-18)
(1.9075 0.208822 -3.87907e-19)
(1.97406 -0.0381025 4.4611e-19)
(2.112 -0.200156 0)
(3.89499 3.491 0)
(3.6471 3.61496 0)
(3.5377 3.41048 1.48889e-18)
(3.24325 3.1319 -5.86485e-19)
(2.8527 2.61894 3.80962e-19)
(2.46797 2.01734 -1.38657e-20)
(2.16839 1.43962 0)
(1.99158 0.945029 5.17893e-19)
(1.93987 0.556966 0)
(1.9941 0.275456 0)
(2.13358 0.0734569 -2.10054e-19)
(3.901 3.38511 0)
(3.66606 3.54215 0)
(3.57492 3.37486 0)
(3.33918 3.20549 1.0677e-18)
(2.9951 2.83148 -8.20405e-19)
(2.60881 2.31028 -1.08007e-18)
(2.29005 1.78532 8.16824e-19)
(2.0891 1.31253 -5.18345e-19)
(2.01862 0.918912 0)
(2.06167 0.611472 0)
(2.20126 0.368358 3.81587e-19)
(3.88513 3.27007 0)
(3.66073 3.45305 -1.62958e-18)
(3.58635 3.30857 4.14212e-19)
(3.38809 3.20119 1.09375e-18)
(3.11451 2.96159 0)
(2.75353 2.54392 1.30728e-18)
(2.4363 2.08435 -7.86362e-19)
(2.22872 1.65322 0)
(2.14983 1.26992 0)
(2.18622 0.946662 2.81828e-19)
(2.31986 0.668983 -6.75724e-20)
(3.85785 3.14946 0)
(3.64036 3.3508 1.60165e-18)
(3.58074 3.21965 -1.79722e-18)
(3.41413 3.15417 -1.00948e-18)
(3.19241 2.99617 7.78577e-19)
(2.89977 2.70998 -2.69238e-19)
(2.59941 2.32111 -6.6753e-19)
(2.4082 1.94533 1.14179e-18)
(2.33591 1.58456 6.29292e-20)
(2.37276 1.25492 -1.78821e-19)
(2.50262 0.940877 -1.23705e-19)
(3.82774 3.02472 0)
(3.61379 3.2384 0)
(3.56721 3.11511 1.73041e-19)
(3.42641 3.07798 0)
(3.25033 2.97382 0)
(3.02346 2.78614 0)
(2.77504 2.49099 -6.52177e-19)
(2.61963 2.17434 2.62264e-19)
(2.57196 1.84522 -1.34301e-19)
(2.61808 1.51694 7.01756e-20)
(2.74328 1.17224 0)
(3.79079 2.90259 1.28541e-18)
(3.58083 3.12278 -1.85748e-18)
(3.54478 2.99955 1.26126e-18)
(3.42471 2.98248 1.00565e-18)
(3.28801 2.91516 -7.72218e-19)
(3.1227 2.79509 -6.55868e-20)
(2.94892 2.58993 3.73586e-19)
(2.85183 2.33386 -2.46314e-19)
(2.84639 2.03937 0)
(2.9135 1.71483 -1.88999e-19)
(3.03273 1.34591 1.03849e-19)
(3.75321 2.78585 0)
(3.54629 3.00551 0)
(3.51534 2.88214 1.42807e-18)
(3.41063 2.88107 -1.09698e-18)
(3.30759 2.84152 -7.45866e-19)
(3.20037 2.76959 6.33655e-19)
(3.11029 2.63312 -3.92057e-19)
(3.09077 2.43002 4.14649e-20)
(3.14348 2.16456 4.47877e-19)
(3.24395 1.84183 -2.7246e-19)
(3.36802 1.4419 1.38776e-19)
(3.72008 2.68275 1.77625e-19)
(3.50306 2.88802 1.29628e-19)
(3.46964 2.7761 1.521e-18)
(3.37984 2.78911 -1.01674e-18)
(3.30886 2.77273 0)
(3.25861 2.73453 0)
(3.25644 2.63843 5.90408e-19)
(3.3267 2.46399 -2.82839e-19)
(3.4485 2.20911 1.06274e-19)
(3.5906 1.87893 -2.25528e-19)
(3.72326 1.44551 1.58819e-19)
(3.64349 2.59629 -1.98276e-19)
(3.43947 2.76744 -1.42868e-19)
(3.40112 2.68006 -2.14549e-19)
(3.33335 2.69796 -4.72683e-19)
(3.29901 2.6885 0)
(3.31501 2.64632 0)
(3.41226 2.52156 1.96002e-20)
(3.57241 2.30639 -1.43743e-19)
(3.76391 1.99994 1.0485e-19)
(3.94931 1.62881 0)
(4.08544 1.17892 3.14703e-20)
(3.52927 2.4844 0)
(3.34493 2.63394 3.34852e-19)
(3.31989 2.54758 -2.55203e-19)
(3.28464 2.54642 -1.29344e-20)
(3.30294 2.48314 -5.47102e-19)
(3.39547 2.34207 -3.97898e-19)
(3.56225 2.09707 -3.23383e-19)
(3.76531 1.77874 4.75592e-20)
(3.96973 1.45073 0)
(4.16171 1.12966 0)
(4.30446 0.751903 8.44192e-20)
(3.23296 2.42747 -2.89021e-18)
(3.24157 2.41999 2.9266e-18)
(3.25192 2.32026 5.9979e-19)
(3.27502 2.22361 2.78617e-21)
(3.35487 2.02717 9.61168e-19)
(3.48879 1.75812 6.74732e-19)
(3.65512 1.48474 1.54728e-19)
(3.83415 1.24956 3.44849e-19)
(4.02409 1.01956 2.73861e-19)
(4.22923 0.767573 1.97924e-19)
(4.40365 0.435156 -3.76836e-19)
(3.32003 2.00194 8.24887e-19)
(3.30554 2.03109 0)
(3.35617 1.8301 -7.86117e-19)
(3.40114 1.63783 -5.45087e-19)
(3.46685 1.44142 2.17144e-20)
(3.55514 1.26555 -2.74645e-19)
(3.66897 1.09756 9.73162e-19)
(3.81255 0.922036 1.02442e-20)
(3.98892 0.717619 -3.59705e-19)
(4.19803 0.475038 -4.20239e-19)
(4.38991 0.155658 0)
(5.17257 1.62876 1.45554e-19)
(4.52617 1.55787 -7.05068e-19)
(4.06142 0.967816 3.65787e-19)
(3.66764 0.544999 -4.10684e-19)
(3.32575 0.276022 4.8319e-19)
(3.03149 0.10424 -2.52651e-19)
(2.77948 -0.0101352 7.72213e-20)
(2.56227 -0.0921149 -2.0595e-19)
(2.37211 -0.156234 2.83658e-20)
(2.20363 -0.207707 2.51972e-19)
(2.05473 -0.24304 -2.0932e-19)
(2.37671 3.10608 4.44161e-18)
(3.0183 2.5069 -3.6199e-18)
(3.19864 1.96909 -1.78938e-19)
(3.20486 1.40906 2.95036e-19)
(3.09121 0.949751 -2.4267e-19)
(2.91319 0.604237 -3.55493e-19)
(2.71079 0.35796 -1.57665e-19)
(2.51057 0.183796 1.17437e-19)
(2.32423 0.0568384 6.39437e-20)
(2.15475 -0.0376674 3.13475e-19)
(2.004 -0.101214 0)
(0.978144 2.83099 6.6945e-18)
(1.67216 2.46986 -2.53908e-18)
(2.18576 2.2625 1.27749e-18)
(2.52191 1.86878 5.17593e-19)
(2.64715 1.43205 -1.06178e-18)
(2.63635 1.03514 8.35491e-19)
(2.5384 0.712667 0)
(2.39724 0.46525 0)
(2.24196 0.279431 -2.0372e-19)
(2.08775 0.141468 -2.0712e-19)
(1.94308 0.0477609 0)
(0.578695 2.41058 3.34724e-19)
(1.08122 2.11832 0)
(1.38218 2.14303 9.98885e-19)
(1.75554 1.97073 -1.036e-18)
(2.07396 1.67817 -3.42464e-19)
(2.24471 1.32677 -2.13401e-19)
(2.27494 0.990043 2.68769e-19)
(2.21647 0.706911 0)
(2.11395 0.48123 -4.11185e-20)
(1.99245 0.307781 1.36793e-19)
(1.86583 0.188396 0)
(0.474011 2.02059 0)
(0.852266 1.76855 0)
(1.02011 1.89227 0)
(1.29318 1.8558 -1.52739e-18)
(1.56066 1.71704 2.25931e-18)
(1.77815 1.48632 -6.28465e-19)
(1.91693 1.20287 -2.60057e-19)
(1.96419 0.916428 0)
(1.93894 0.661878 2.19578e-19)
(1.86915 0.454034 -2.30949e-19)
(1.77368 0.304775 0)
(0.510345 1.72867 0)
(0.779771 1.50554 0)
(0.857096 1.65244 -1.37437e-18)
(1.05047 1.67312 1.10301e-18)
(1.25694 1.62548 0)
(1.44705 1.49683 0)
(1.59128 1.29965 0)
(1.67524 1.06372 0)
(1.70294 0.820824 -4.59168e-20)
(1.68679 0.597053 0)
(1.63889 0.419581 0)
(0.628852 1.54137 4.34155e-19)
(0.799323 1.33861 -1.01727e-18)
(0.809493 1.47847 7.71792e-19)
(0.932481 1.51562 -5.52205e-20)
(1.07023 1.51057 0)
(1.21102 1.44057 0)
(1.33374 1.30325 -5.34753e-19)
(1.42346 1.11347 5.21542e-19)
(1.47676 0.895363 0)
(1.49763 0.674995 9.02489e-20)
(1.48934 0.489633 1.10205e-19)
(0.789227 1.44499 2.33484e-19)
(0.870031 1.25568 0)
(0.831575 1.37593 5.33519e-19)
(0.8967 1.4103 -4.10208e-19)
(0.970162 1.4194 8.08717e-20)
(1.05257 1.37677 3.38998e-19)
(1.13227 1.27422 -4.10798e-19)
(1.20045 1.11765 -2.02437e-19)
(1.25419 0.923443 5.14533e-19)
(1.29352 0.712622 -2.66791e-19)
(1.31327 0.525387 -2.86442e-19)
(0.969856 1.41021 -2.3395e-19)
(0.974481 1.22946 1.67892e-19)
(0.896789 1.32864 -3.76505e-20)
(0.913738 1.35293 -2.756e-19)
(0.930577 1.36193 2.20552e-19)
(0.955391 1.32757 4.32611e-19)
(0.983619 1.24032 -3.30823e-19)
(1.01464 1.10197 -4.1537e-19)
(1.05098 0.924339 1.80659e-20)
(1.0934 0.723706 1.3006e-19)
(1.13037 0.542375 -9.19141e-20)
(1.16586 1.4094 0)
(1.10356 1.23985 -1.71033e-20)
(0.994654 1.31618 1.26003e-19)
(0.969643 1.32851 -6.43039e-20)
(0.936759 1.33065 -8.38813e-20)
(0.907777 1.29379 -5.59455e-20)
(0.882186 1.20901 0)
(0.86693 1.07647 1.48084e-19)
(0.872857 0.90578 -1.1149e-19)
(0.904882 0.709408 0)
(0.94382 0.527592 1.22382e-19)
(1.37488 1.43443 0)
(1.25194 1.27557 1.66997e-19)
(1.12474 1.32479 -2.06726e-19)
(1.06066 1.32449 9.52712e-20)
(0.984401 1.31563 7.58278e-21)
(0.907828 1.27066 5.50075e-20)
(0.830095 1.18027 4.31646e-20)
(0.761845 1.04262 -7.48146e-20)
(0.725298 0.869354 2.60998e-20)
(0.734787 0.671069 4.11988e-20)
(0.767222 0.47931 -3.05314e-20)
(1.58109 1.47904 -4.62324e-19)
(1.41541 1.33269 3.60086e-19)
(1.28299 1.34778 7.68053e-20)
(1.18161 1.33519 -2.65343e-19)
(1.06896 1.31123 8.96691e-20)
(0.951722 1.25191 -1.18208e-19)
(0.828642 1.14896 0)
(0.710524 1.0009 0)
(0.622847 0.817936 -8.01623e-20)
(0.594811 0.60696 1.18573e-19)
(0.621835 0.39998 3.63291e-20)
(1.78426 1.51718 0)
(1.59273 1.39794 0)
(1.45673 1.3831 2.86953e-19)
(1.32929 1.35628 -4.45772e-19)
(1.18976 1.31453 2.90834e-19)
(1.0395 1.2378 -4.24664e-20)
(0.878106 1.11657 1.51509e-19)
(0.715978 0.948864 0)
(0.579085 0.744952 8.46366e-20)
(0.505034 0.518941 4.93786e-20)
(0.500566 0.298616 3.47441e-20)
(1.98554 1.55003 -4.14016e-19)
(1.77572 1.46342 0)
(1.64294 1.42551 0)
(1.50124 1.38502 0)
(1.34365 1.32513 -4.55912e-20)
(1.16993 1.22885 0)
(0.979853 1.08589 6.45259e-20)
(0.782854 0.892856 6.10893e-19)
(0.603544 0.65922 -4.58782e-19)
(0.482726 0.405363 0)
(0.447437 0.152896 -4.01209e-19)
(2.17659 1.58361 0)
(1.95393 1.53134 6.91319e-19)
(1.83409 1.47378 -1.25192e-18)
(1.6887 1.41993 6.2542e-19)
(1.52357 1.34221 3.92647e-19)
(1.33806 1.22513 -3.50108e-19)
(1.13174 1.05803 -2.16142e-19)
(0.912541 0.836155 -3.33108e-19)
(0.702685 0.567805 5.33826e-19)
(0.540568 0.279011 -2.13276e-19)
(0.476842 -0.0175642 2.4265e-19)
(2.35248 1.61232 -5.90649e-19)
(2.12511 1.59684 1.07753e-18)
(2.02415 1.5238 -7.49987e-19)
(1.88403 1.45793 -1.3876e-19)
(1.72205 1.36351 2.76108e-19)
(1.53758 1.22574 -8.27421e-19)
(1.32961 1.03382 9.51188e-19)
(1.10429 0.781911 0)
(0.880684 0.477313 -4.10556e-19)
(0.690773 0.15165 5.27821e-19)
(0.605582 -0.181557 -4.25361e-20)
(2.51649 1.63701 7.86776e-19)
(2.29033 1.65667 1.14945e-18)
(2.21005 1.57185 -8.88808e-19)
(2.08226 1.49504 -1.92752e-19)
(1.93308 1.38545 1.55866e-19)
(1.76228 1.22845 0)
(1.56832 1.01322 -1.46096e-19)
(1.35543 0.733017 -5.99343e-19)
(1.1394 0.393307 1.10668e-18)
(0.946854 0.0253901 0)
(0.833327 -0.342805 0)
(2.67091 1.66134 -9.69688e-20)
(2.44932 1.71016 8.77316e-20)
(2.38988 1.61519 -1.15244e-18)
(2.28008 1.52744 1.90519e-18)
(2.15179 1.40411 -3.42201e-20)
(2.00593 1.23054 -5.36009e-19)
(1.84076 0.99603 -1.1098e-18)
(1.65852 0.693251 4.94139e-19)
(1.46982 0.326099 -7.75417e-19)
(1.29185 -0.075694 1.86002e-19)
(1.18659 -0.483789 0)
(2.81592 1.68473 -9.671e-19)
(2.60162 1.754 -9.41644e-20)
(2.56246 1.64986 1.34509e-18)
(2.47477 1.55131 -9.70019e-19)
(2.37338 1.41628 -9.41381e-20)
(2.26118 1.23009 0)
(2.13724 0.982508 -5.1599e-19)
(2.00249 0.66615 5.74178e-19)
(1.8635 0.282854 -2.415e-21)
(1.73123 -0.142397 2.07777e-19)
(1.64784 -0.57613 2.83217e-19)
(2.95022 1.704 -3.55066e-18)
(2.74607 1.78394 1.81959e-18)
(2.72573 1.67256 9.45505e-20)
(2.6622 1.56472 1.18317e-18)
(2.59097 1.42076 4.54541e-20)
(2.51788 1.22642 -1.47162e-19)
(2.44396 0.973034 -4.0672e-19)
(2.3695 0.654253 -1.65945e-21)
(2.29668 0.269561 2.50056e-21)
(2.22932 -0.164473 0)
(2.19613 -0.620379 0)
(3.07061 1.71979 -1.47314e-18)
(2.88029 1.79832 -1.49258e-18)
(2.87524 1.68291 1.39002e-18)
(2.83556 1.5679 -1.0366e-18)
(2.79504 1.41718 2.10241e-18)
(2.76346 1.21836 -1.84145e-19)
(2.74426 0.966583 -1.54279e-19)
(2.73675 0.657799 0)
(2.73883 0.289201 -5.26795e-19)
(2.74854 -0.130504 6.18284e-19)
(2.76727 -0.578295 5.52411e-21)
(3.17294 1.7066 1.90203e-18)
(2.99803 1.7889 -1.04663e-18)
(3.00724 1.67558 -1.36343e-18)
(2.98877 1.55695 3.96184e-19)
(2.97827 1.40104 1.23236e-18)
(2.98899 1.20199 -1.83588e-18)
(3.02503 0.96035 1.02455e-18)
(3.08369 0.674306 0)
(3.16167 0.338046 1.89529e-19)
(3.26248 -0.0474929 1.09952e-19)
(3.32832 -0.479637 -6.57252e-19)
(3.24365 1.74076 -2.02208e-18)
(3.09985 1.80216 -4.75147e-20)
(3.10954 1.68517 2.0389e-18)
(3.11234 1.55119 0)
(3.13544 1.3843 -7.21186e-19)
(3.19015 1.18658 1.04773e-18)
(3.27633 0.962208 -8.66595e-19)
(3.38907 0.708242 6.79032e-20)
(3.52527 0.414343 0)
(3.6908 0.074043 -5.37971e-19)
(3.81695 -0.331659 7.11943e-19)
(3.30963 1.61324 -1.06174e-18)
(3.21794 1.71187 -2.85684e-18)
(3.24493 1.58485 9.55917e-19)
(3.27353 1.45395 0)
(3.33113 1.29594 -6.65878e-19)
(3.42147 1.11892 -7.80541e-19)
(3.53952 0.927713 -8.37937e-19)
(3.68009 0.718136 0)
(3.84227 0.478321 7.64441e-19)
(4.03261 0.201876 -1.50647e-18)
(4.19984 -0.138208 1.35388e-18)
(7.62018 -4.03107 -3.48528e-19)
(6.51316 -3.54031 0)
(6.10272 -2.829 3.89018e-20)
(5.77052 -2.26815 6.57428e-20)
(5.43263 -1.81798 -8.38822e-21)
(5.11092 -1.47326 6.96194e-21)
(4.8146 -1.21359 -5.68125e-20)
(4.54174 -1.01168 1.9164e-20)
(4.29627 -0.851158 2.29229e-20)
(4.07581 -0.7215 -8.32577e-20)
(3.87925 -0.628382 1.81923e-19)
(4.16606 -4.9485 0)
(4.43837 -4.50767 0)
(4.7324 -3.84268 0)
(4.86336 -3.18714 -1.38649e-18)
(4.8434 -2.60567 1.08031e-18)
(4.72138 -2.1199 -5.45814e-20)
(4.54481 -1.73134 4.46632e-20)
(4.3471 -1.42442 3.52139e-19)
(4.14833 -1.18227 -3.13124e-19)
(3.95847 -0.991781 6.11272e-20)
(3.78204 -0.851083 0)
(2.19468 -4.37371 -8.97621e-18)
(2.94635 -4.32924 5.89276e-18)
(3.43964 -4.05916 0)
(3.82599 -3.61364 0)
(4.05912 -3.10829 -1.55616e-18)
(4.15227 -2.61264 2.20871e-18)
(4.13776 -2.16874 -7.36735e-19)
(4.05446 -1.79288 8.41228e-19)
(3.93454 -1.48504 -6.62205e-19)
(3.80082 -1.23727 -2.27355e-19)
(3.66455 -1.04779 0)
(1.26743 -3.56733 4.07446e-18)
(1.88823 -3.7218 3.76868e-19)
(2.43163 -3.77688 0)
(2.90803 -3.59929 0)
(3.2703 -3.26786 0)
(3.51357 -2.86679 0)
(3.64227 -2.45653 0)
(3.68184 -2.07341 0)
(3.65888 -1.73734 -7.26835e-19)
(3.5943 -1.45563 7.60659e-19)
(3.4997 -1.2337 3.56928e-19)
(1.01079 -3.1422 0)
(1.39244 -3.22578 0)
(1.70153 -3.32197 0)
(2.11962 -3.32227 3.59191e-18)
(2.53308 -3.18645 -3.24069e-18)
(2.86863 -2.9225 2.83122e-18)
(3.09778 -2.59079 -2.13415e-18)
(3.23139 -2.24186 0)
(3.29291 -1.9085 8.39408e-19)
(3.30622 -1.60821 1.09875e-18)
(3.28287 -1.35645 -1.15508e-18)
(0.933782 -2.79913 -7.50722e-19)
(1.2181 -2.84899 -5.82557e-19)
(1.40488 -2.94574 0)
(1.69063 -2.96898 2.03052e-18)
(2.00562 -2.90804 -3.08633e-18)
(2.3166 -2.75203 1.53875e-18)
(2.58797 -2.52151 0)
(2.79723 -2.24619 0)
(2.93978 -1.95643 0)
(3.023 -1.67851 -5.98732e-19)
(3.0536 -1.43781 0)
(0.876746 -2.50883 3.44298e-18)
(1.10334 -2.51614 5.51133e-19)
(1.23752 -2.59539 -3.29416e-18)
(1.45868 -2.62507 2.54194e-18)
(1.70875 -2.60095 9.64872e-19)
(1.97176 -2.50799 -2.87493e-18)
(2.22341 -2.35024 1.06951e-18)
(2.44231 -2.14385 -5.58778e-20)
(2.61629 -1.91009 -1.9901e-18)
(2.74114 -1.67151 -6.42107e-19)
(2.81228 -1.45188 0)
(0.819805 -2.26571 0)
(1.01444 -2.23686 1.91795e-18)
(1.1234 -2.29171 -2.197e-18)
(1.30013 -2.31491 2.30612e-18)
(1.50236 -2.30235 -1.74129e-18)
(1.72315 -2.24283 0)
(1.94745 -2.13485 0)
(2.15879 -1.98479 2.78451e-18)
(2.3443 -1.80442 -1.0248e-18)
(2.494 -1.61084 1.31664e-18)
(2.59323 -1.42875 0)
(0.774137 -2.05051 1.6828e-18)
(0.948992 -1.99823 -3.43944e-18)
(1.04042 -2.03346 6.83097e-19)
(1.18925 -2.04767 5.36152e-19)
(1.35876 -2.03666 4.4114e-20)
(1.54669 -1.9929 0)
(1.74414 -1.91439 0)
(1.93981 -1.80315 -1.31027e-18)
(2.12319 -1.66442 9.83711e-19)
(2.28322 -1.50871 0)
(2.40154 -1.35606 -8.62449e-19)
(0.748077 -1.86204 1.00193e-18)
(0.906013 -1.78858 0)
(0.980373 -1.80887 0)
(1.1085 -1.81509 2.66994e-20)
(1.25429 -1.80246 4.15278e-20)
(1.41752 -1.76577 0)
(1.59258 -1.70392 8.50415e-19)
(1.77171 -1.61749 5.91836e-19)
(1.94701 -1.50821 -9.31486e-19)
(2.1082 -1.38124 6.206e-19)
(2.23476 -1.24947 0)
(0.734445 -1.70832 1.37542e-18)
(0.872762 -1.60814 -1.07387e-18)
(0.933725 -1.61243 0)
(1.04645 -1.60965 4.56804e-19)
(1.17469 -1.59312 7.11792e-19)
(1.31959 -1.5588 0)
(1.47723 -1.50623 0)
(1.64201 -1.43579 -5.7559e-19)
(1.8082 -1.34781 0)
(1.96676 -1.24539 -1.19518e-18)
(2.09262 -1.14193 1.24287e-18)
(0.715336 -1.57272 8.63286e-19)
(0.83265 -1.44746 -1.6113e-19)
(0.889855 -1.4363 0)
(0.99407 -1.4241 0)
(1.11088 -1.40228 6.37716e-19)
(1.24311 -1.36748 -2.55351e-19)
(1.38811 -1.31983 0)
(1.54174 -1.25982 5.65524e-19)
(1.69985 -1.1873 0)
(1.85513 -1.10363 0)
(1.98367 -1.01801 0)
(0.69321 -1.43501 0)
(0.793004 -1.29217 -1.61753e-19)
(0.849413 -1.26991 1.19539e-19)
(0.948077 -1.25029 9.31472e-20)
(1.05746 -1.22352 -5.91942e-19)
(1.18151 -1.18709 3.34134e-19)
(1.3182 -1.14186 0)
(1.4643 -1.08867 -5.01099e-19)
(1.61675 -1.02712 1.99784e-19)
(1.77003 -0.956539 0)
(1.90148 -0.879995 -3.61853e-19)
(0.677658 -1.30797 -3.79059e-19)
(0.762451 -1.14414 0)
(0.814976 -1.11041 3.3412e-19)
(0.907983 -1.0836 -8.94542e-20)
(1.01197 -1.05189 -2.70031e-19)
(1.13102 -1.01325 -1.09375e-19)
(1.26298 -0.969141 0)
(1.40481 -0.920862 0)
(1.55367 -0.868122 5.12216e-19)
(1.705 -0.80934 -2.58547e-19)
(1.83384 -0.746935 1.04236e-20)
(0.658552 -1.19062 0)
(0.725903 -1.00237 0)
(0.780044 -0.955428 4.38833e-19)
(0.87153 -0.920604 -5.05043e-19)
(0.973479 -0.883511 2.4739e-19)
(1.09075 -0.842228 -3.91809e-19)
(1.22121 -0.798731 1.48853e-19)
(1.36179 -0.754798 -2.06965e-19)
(1.50932 -0.710298 0)
(1.66006 -0.66273 3.31826e-19)
(1.79072 -0.610651 -9.20951e-20)
(0.640029 -1.06426 3.46388e-19)
(0.68893 -0.855911 1.28491e-19)
(0.747647 -0.798265 0)
(0.839546 -0.756431 4.64238e-19)
(0.941943 -0.714202 0)
(1.06041 -0.670406 0)
(1.19253 -0.627845 2.2203e-19)
(1.33471 -0.588853 2.32041e-19)
(1.48282 -0.553295 0)
(1.63387 -0.517488 1.98481e-19)
(1.76476 -0.476423 2.57971e-19)
(0.629022 -0.937668 0)
(0.660172 -0.7067 -1.30953e-19)
(0.721984 -0.637475 0)
(0.813904 -0.58802 -3.41884e-19)
(0.918384 -0.540442 -3.8901e-19)
(1.04091 -0.494511 3.09806e-19)
(1.17792 -0.454037 -2.57007e-19)
(1.32425 -0.421919 -3.31684e-19)
(1.47407 -0.397479 0)
(1.62485 -0.375572 -2.97386e-19)
(1.75382 -0.347521 1.52417e-19)
(0.6185 -0.813681 1.58302e-19)
(0.629922 -0.557048 0)
(0.699162 -0.472464 0)
(0.79431 -0.413117 0)
(0.904507 -0.359258 1.52911e-19)
(1.03543 -0.311712 -3.91598e-19)
(1.18074 -0.27584 0)
(1.33322 -0.254276 3.35793e-19)
(1.48481 -0.244501 -1.94563e-19)
(1.63431 -0.239349 4.38798e-19)
(1.76004 -0.2254 -4.96653e-19)
(0.611908 -0.680317 -7.46933e-20)
(0.600741 -0.398496 5.75652e-20)
(0.68258 -0.296339 0)
(0.785398 -0.225681 0)
(0.907259 -0.166059 2.10648e-19)
(1.05093 -0.120273 1.31461e-19)
(1.20723 -0.0941782 0)
(1.36579 -0.0886554 -4.75357e-19)
(1.51681 -0.0976221 6.13662e-19)
(1.66138 -0.111257 -1.0324e-18)
(1.78267 -0.112113 5.89586e-19)
(0.615452 -0.530623 1.21544e-19)
(0.578442 -0.22395 0)
(0.6796 -0.102092 0)
(0.796524 -0.020254 0)
(0.936665 0.0415037 -5.29282e-19)
(1.09794 0.0784821 7.59175e-19)
(1.2659 0.0862656 9.60855e-20)
(1.42696 0.0685673 4.85673e-19)
(1.57155 0.0370902 0)
(1.70343 0.00455183 0)
(1.81616 -0.0109266 -7.42703e-19)
(0.632512 -0.363148 -5.89931e-20)
(0.571764 -0.0251722 -3.00291e-19)
(0.701601 0.116415 0)
(0.843336 0.205808 3.05899e-19)
(1.00905 0.260586 -1.74027e-19)
(1.18937 0.276164 -2.82279e-19)
(1.36376 0.254234 -2.56656e-19)
(1.51795 0.206755 4.21373e-19)
(1.64657 0.151352 -2.19523e-19)
(1.75732 0.102123 0)
(1.85399 0.0737574 2.94854e-20)
(0.713357 -0.13226 -4.42364e-19)
(0.583161 0.208818 2.54941e-19)
(0.778183 0.363292 0)
(0.955024 0.446926 0)
(1.14811 0.475251 -3.49164e-20)
(1.33877 0.451394 -3.80084e-19)
(1.50431 0.38967 1.12153e-19)
(1.63586 0.311171 -2.77091e-19)
(1.73639 0.23597 2.28833e-19)
(1.81846 0.176329 0)
(1.89427 0.139481 2.89674e-19)
(0.634555 -0.0467117 2.05824e-19)
(0.713756 0.434376 1.08163e-19)
(0.917152 0.603287 -3.64982e-20)
(1.14821 0.655404 4.23167e-20)
(1.36088 0.63319 1.20349e-19)
(1.53935 0.559132 -4.51755e-20)
(1.67313 0.461158 -1.04673e-19)
(1.76575 0.362932 7.60915e-20)
(1.82884 0.280742 0)
(1.87782 0.222512 0)
(1.92832 0.188724 -2.51068e-19)
(2.17104 0.919733 0)
(1.16988 0.990144 2.38496e-19)
(1.64892 0.904879 -2.59513e-19)
(1.74095 0.820263 3.08499e-19)
(1.81703 0.706504 -6.18473e-20)
(1.87166 0.579853 0)
(1.90415 0.460121 7.07001e-22)
(1.91825 0.358482 -1.25911e-19)
(1.92429 0.283368 8.19708e-20)
(1.93145 0.237918 -1.43854e-19)
(1.95047 0.217598 2.28405e-19)
(7.59068 -1.9186 -5.31942e-18)
(5.9514 -0.823009 3.23105e-18)
(6.29909 -1.092 0)
(6.32494 -1.17844 4.6901e-19)
(5.95462 -1.04919 -3.73071e-19)
(5.48144 -0.892073 2.86145e-19)
(5.07657 -0.75376 -1.06066e-19)
(4.72834 -0.629537 5.76535e-20)
(4.43296 -0.534955 3.5066e-20)
(4.17171 -0.457841 7.2461e-20)
(3.94513 -0.407827 -1.68165e-19)
(4.80064 -1.78417 0)
(4.04733 -0.520315 1.03464e-18)
(5.08783 -0.289674 0)
(5.7183 -0.271183 3.86759e-19)
(5.85297 -0.234068 0)
(5.68656 -0.215104 5.8566e-19)
(5.33595 -0.211419 -1.11649e-18)
(4.89777 -0.196595 7.43146e-19)
(4.55578 -0.179088 -2.00788e-19)
(4.25466 -0.160838 6.99116e-20)
(4.00405 -0.157127 -4.25204e-20)
(2.28033 -3.60435 0)
(2.99406 -1.74014 0)
(3.98279 -0.630509 9.72725e-20)
(4.76648 -0.067086 2.61864e-19)
(5.26282 0.244774 -1.46304e-18)
(5.45698 0.375392 -5.64615e-19)
(5.35243 0.374051 1.533e-18)
(5.01399 0.308252 3.51597e-19)
(4.61293 0.227682 4.9115e-19)
(4.29192 0.175998 3.08235e-19)
(4.01928 0.119879 -2.22035e-19)
(1.73306 -6.43967 -1.68953e-18)
(2.4754 -3.63742 1.22122e-18)
(3.18285 -1.78731 -3.37734e-20)
(3.92849 -0.561107 -1.19322e-18)
(4.56644 0.227388 2.8167e-18)
(4.98443 0.670391 -1.0601e-18)
(5.11275 0.833301 -1.85919e-18)
(4.94918 0.801211 -2.50632e-19)
(4.61579 0.669524 -5.54674e-19)
(4.25918 0.537406 4.04923e-19)
(3.97927 0.427098 -4.16022e-19)
(1.94821 -6.44965 2.96518e-18)
(2.08005 -5.2124 -2.27085e-18)
(2.61913 -3.08006 -1.45707e-18)
(3.28054 -1.38951 1.00353e-18)
(3.929 -0.15204 0)
(4.44308 0.663129 2.07561e-18)
(4.72563 1.09114 -7.2834e-19)
(4.72617 1.1984 2.36831e-18)
(4.50079 1.09139 -5.0613e-19)
(4.18165 0.912018 -6.68729e-19)
(3.86887 0.740133 -4.70018e-19)
(2.02685 -6.67946 5.35071e-18)
(2.07879 -5.87732 -1.01822e-18)
(2.26341 -4.26683 -1.59427e-18)
(2.79457 -2.33973 1.15451e-18)
(3.39103 -0.744873 -1.65477e-18)
(3.91932 0.426303 -1.06206e-18)
(4.27857 1.15459 -1.53715e-18)
(4.39697 1.46724 -6.54796e-19)
(4.27925 1.4539 4.66506e-19)
(4.02078 1.26989 6.95816e-19)
(3.74178 1.03911 5.63958e-19)
(2.10411 -6.86911 3.09312e-18)
(2.16902 -6.24909 -1.89869e-18)
(2.16094 -5.26584 -1.29669e-20)
(2.46213 -3.36935 -1.11833e-18)
(2.95318 -1.48937 1.17157e-18)
(3.44229 0.017255 -1.50117e-18)
(3.818 1.05367 6.70314e-19)
(4.00286 1.60592 -2.45425e-18)
(3.9715 1.73547 3.44069e-19)
(3.77687 1.59449 0)
(3.56514 1.32617 8.50342e-19)
(2.15684 -7.08013 -2.89354e-18)
(2.24968 -6.51759 3.12882e-18)
(2.18326 -5.72352 0)
(2.27171 -4.26264 1.11624e-18)
(2.61272 -2.2915 -4.30118e-20)
(3.02018 -0.509829 5.55997e-19)
(3.36596 0.82214 1.86191e-18)
(3.5701 1.62507 8.87208e-19)
(3.59616 1.9254 0)
(3.46283 1.86119 -4.31782e-19)
(3.30639 1.59025 -8.32569e-19)
(2.19569 -7.30688 -4.42725e-18)
(2.30554 -6.78214 2.77154e-18)
(2.23117 -6.08363 -2.89792e-18)
(2.2159 -4.96185 2.17474e-18)
(2.36969 -3.09046 1.04263e-18)
(2.65278 -1.11746 0)
(2.92913 0.485074 -8.49075e-19)
(3.1118 1.53528 -2.75419e-19)
(3.16354 2.01799 1.21909e-19)
(3.07776 2.05261 2.49766e-19)
(3.00143 1.80482 2.68188e-19)
(2.23544 -7.52711 4.27335e-18)
(2.35411 -7.03443 -3.09913e-18)
(2.26275 -6.38562 -3.2676e-21)
(2.20276 -5.38881 0)
(2.20486 -3.76036 -2.11354e-19)
(2.33786 -1.74503 1.64283e-19)
(2.50849 0.0703462 0)
(2.63452 1.34774 5.91804e-19)
(2.6841 2.00965 -4.44998e-19)
(2.63568 2.15376 3.60909e-19)
(2.6237 1.95761 -1.19562e-19)
(2.26801 -7.71358 4.41556e-18)
(2.38771 -7.27026 -3.22372e-18)
(2.26269 -6.66447 -1.65466e-19)
(2.18372 -5.74441 0)
(2.08138 -4.34633 1.74926e-18)
(2.065 -2.36038 -1.48634e-18)
(2.09991 -0.402834 0)
(2.14 1.0678 -1.25553e-18)
(2.16431 1.89355 9.42624e-19)
(2.14613 2.14633 -1.25972e-19)
(2.1811 2.01447 4.6189e-19)
(2.26175 -7.8839 -4.32083e-18)
(2.37962 -7.49236 3.9628e-18)
(2.24073 -6.91165 9.59956e-19)
(2.14131 -6.05254 0)
(1.9663 -4.7926 8.72053e-19)
(1.81057 -2.92883 1.37977e-18)
(1.69768 -0.910535 0)
(1.63114 0.704323 0)
(1.61314 1.66464 -8.20042e-19)
(1.62059 2.01641 -3.49017e-19)
(1.70844 1.9479 -4.85095e-19)
(2.2508 -8.02903 0)
(2.35836 -7.66555 -7.91554e-19)
(2.19951 -7.11636 -6.33564e-19)
(2.052 -6.32246 -2.11628e-18)
(1.82028 -5.16567 4.32391e-18)
(1.55317 -3.43983 -1.3607e-18)
(1.29533 -1.43447 -4.06695e-18)
(1.11284 0.262831 1.4886e-18)
(1.04561 1.3173 1.65972e-18)
(1.07217 1.75425 -2.30921e-18)
(1.24636 1.7637 6.03237e-19)
(2.2421 -8.12125 0)
(2.3075 -7.78725 0)
(2.12506 -7.28099 1.23133e-18)
(1.91955 -6.55498 2.02426e-18)
(1.62581 -5.50778 -3.44933e-18)
(1.27396 -3.9215 -2.76676e-18)
(0.894479 -1.97813 2.07414e-18)
(0.59798 -0.258366 -2.78489e-18)
(0.487922 0.847085 -1.20333e-19)
(0.540116 1.35533 -1.45116e-19)
(0.769431 1.45048 -2.06197e-18)
(2.22209 -8.16174 -7.58444e-18)
(2.21648 -7.85865 2.97111e-18)
(2.01105 -7.38798 -1.2394e-18)
(1.74805 -6.73102 -6.11661e-18)
(1.39031 -5.81033 6.6144e-18)
(0.936108 -4.40522 8.65072e-20)
(0.498529 -2.5335 0)
(0.117148 -0.857641 2.82137e-18)
(-0.0278955 0.256455 3.29181e-18)
(0.0625712 0.819919 -2.92895e-19)
(0.332944 1.00102 2.24626e-18)
(2.19125 -8.14588 0)
(2.09264 -7.8694 0)
(1.85704 -7.42669 0)
(1.5356 -6.82336 0)
(1.11625 -6.00172 0)
(0.612365 -4.88285 0)
(0.128343 -3.19563 0)
(-0.300703 -1.52351 0)
(-0.452369 -0.436036 0)
(-0.323459 0.156628 0)
(0.00380707 0.42657 -2.39128e-18)
(2.1394 -8.05561 -3.53784e-18)
(1.93672 -7.81052 -1.30814e-18)
(1.66366 -7.40438 -1.0412e-18)
(1.29023 -6.86784 0)
(0.827469 -6.15263 0)
(0.297033 -5.19812 0)
(-0.199352 -3.88718 3.20615e-18)
(-0.619362 -2.32487 -3.74463e-19)
(-0.754881 -1.22692 0)
(-0.591221 -0.621331 -2.31961e-18)
(-0.183175 -0.252277 1.58621e-18)
(2.05063 -7.87462 0)
(1.73977 -7.66564 3.98056e-18)
(1.42076 -7.30946 3.18099e-18)
(1.00072 -6.86279 -3.23996e-18)
(0.515709 -6.28654 0)
(0.00714205 -5.5312 1.18073e-19)
(-0.459041 -4.5222 2.50326e-18)
(-0.817301 -3.24362 -4.06167e-18)
(-0.920333 -2.11161 -1.22383e-18)
(-0.73587 -1.48576 1.20219e-18)
(-0.266612 -0.988823 0)
(1.9008 -7.58573 3.14111e-18)
(1.48439 -7.41617 -2.38766e-18)
(1.10803 -7.13349 0)
(0.649235 -6.8133 -2.9491e-18)
(0.169518 -6.41697 1.2475e-18)
(-0.274703 -5.89162 2.00744e-18)
(-0.632168 -5.16952 -2.59423e-18)
(-0.875715 -4.19065 1.6694e-18)
(-0.920291 -3.12292 0)
(-0.711686 -2.3997 0)
(-0.265598 -1.77947 5.52218e-20)
(1.63444 -7.16588 0)
(1.13034 -7.04641 0)
(0.688815 -6.88275 -7.68257e-19)
(0.213092 -6.74702 2.64041e-18)
(-0.217956 -6.58196 -9.17601e-19)
(-0.545827 -6.31116 -3.77208e-19)
(-0.732835 -5.84098 1.82759e-18)
(-0.809373 -5.12043 -4.13413e-19)
(-0.770282 -4.21546 0)