/*--------------------------------*- C++ -*----------------------------------*\
| =========                 |                                                 |
| \\      /  F ield         | OpenFOAM: The Open Source CFD Toolbox           |
|  \\    /   O peration     | Version:  3.0.1                                 |
|   \\  /    A nd           | Web:      www.OpenFOAM.org                      |
|    \\/     M anipulation  |                                                 |
\*---------------------------------------------------------------------------*/
FoamFile
{
    version     2.0;
    format      ascii;
    class       volScalarField;
    location    "0.287003";
    object      p;
}
// * * * * * * * * * * * * * * * * * * * * * * * * * * * * * * * * * * * * * //

dimensions      [0 2 -2 0 0 0 0];

internalField   nonuniform List<scalar> 
21246
(
0.623839
0.479083
0.400164
0.358835
0.331194
0.308809
0.28045
0.241427
0.19345
0.147679
0.135246
1.12434
0.979441
0.80816
0.689437
0.605411
0.537584
0.474908
0.410868
0.342837
0.281834
0.257097
0.865271
0.924775
0.880195
0.813659
0.747509
0.680674
0.609669
0.533746
0.457317
0.394676
0.366459
0.547526
0.684999
0.738819
0.757231
0.747928
0.717687
0.671823
0.616319
0.556136
0.49704
0.45482
0.293051
0.468223
0.557016
0.625991
0.674286
0.698463
0.696418
0.669804
0.623175
0.566916
0.525976
0.0921836
0.279104
0.373534
0.475328
0.564612
0.629665
0.664171
0.667003
0.641269
0.59747
0.56224
-0.07779
0.12261
0.195597
0.310707
0.42113
0.514082
0.580202
0.614045
0.615194
0.591806
0.569108
-0.179864
-0.0303394
0.0537979
0.16767
0.282015
0.387557
0.473763
0.532155
0.558786
0.558017
0.559027
-0.262662
-0.131128
-0.0488659
0.0548882
0.165195
0.272921
0.367962
0.441009
0.485786
0.504539
0.52274
-0.335395
-0.20759
-0.129321
-0.0326769
0.0718877
0.176807
0.273541
0.353438
0.40944
0.442317
0.474057
-0.384565
-0.263147
-0.190727
-0.100569
-0.00223958
0.0977876
0.192434
0.274115
0.3358
0.377576
0.422018
-0.403667
-0.294879
-0.231863
-0.149999
-0.0594762
0.0338111
0.123769
0.203823
0.267488
0.314511
0.366896
-0.418471
-0.317418
-0.261091
-0.186592
-0.104115
-0.0185831
0.0649145
0.140905
0.203815
0.253472
0.312426
-0.436719
-0.337712
-0.285458
-0.217025
-0.142168
-0.0647336
0.0111935
0.0813047
0.14102
0.189756
0.249212
-0.432998
-0.345598
-0.302634
-0.242824
-0.177066
-0.108916
-0.0418288
0.0210116
0.0764307
0.124293
0.186134
-0.431398
-0.354671
-0.3201
-0.269365
-0.21383
-0.156323
-0.0994236
-0.044933
0.00574879
0.0527481
0.117794
-0.444482
-0.373377
-0.345011
-0.303356
-0.259107
-0.21368
-0.168202
-0.122604
-0.0760022
-0.0280331
0.0405217
-0.451926
-0.393762
-0.376864
-0.348345
-0.318742
-0.287976
-0.255243
-0.218206
-0.173323
-0.119941
-0.0419577
-0.467282
-0.425682
-0.424001
-0.41321
-0.402642
-0.38971
-0.370186
-0.33887
-0.290713
-0.226083
-0.132432
-0.503391
-0.481341
-0.497985
-0.509386
-0.522431
-0.530246
-0.52313
-0.491798
-0.431458
-0.347061
-0.236216
-0.569806
-0.572642
-0.613596
-0.652567
-0.694095
-0.723304
-0.722589
-0.679728
-0.593953
-0.477557
-0.338745
-0.667056
-0.726659
-0.792607
-0.86689
-0.94037
-0.984551
-0.974412
-0.899522
-0.770712
-0.609097
-0.432846
-1.00927
-0.979925
-1.08778
-1.20551
-1.29152
-1.32492
-1.2765
-1.14353
-0.950523
-0.733693
-0.518634
-0.177911
-0.956593
-1.29044
-1.51235
-1.65161
-1.67144
-1.56297
-1.35666
-1.09927
-0.83166
-0.582905
-1.41242
-0.511444
-0.166339
-0.0743065
0.0046501
0.0643287
0.0758827
0.0583588
0.0289012
-0.00748304
-0.0135208
-1.23862
-0.847791
-0.657715
-0.581208
-0.484014
-0.369147
-0.273837
-0.21027
-0.192706
-0.206189
-0.193677
-1.07758
-1.00259
-0.933492
-0.914007
-0.911689
-0.866035
-0.76819
-0.644619
-0.537495
-0.476318
-0.422871
-1.63096
-1.46955
-1.34154
-1.30012
-1.34135
-1.39279
-1.36767
-1.24586
-1.07069
-0.905274
-0.752853
-2.27471
-2.16178
-2.01002
-1.90991
-1.92845
-2.03109
-2.09446
-2.02609
-1.82077
-1.54949
-1.26329
-2.95557
-2.93213
-2.83516
-2.76723
-2.76334
-2.87689
-3.01308
-3.01833
-2.81772
-2.45154
-2.00849
-3.60443
-3.69797
-3.68749
-3.72482
-3.80871
-3.95313
-4.1573
-4.24673
-4.07722
-3.63104
-3.02503
-4.20524
-4.41551
-4.49889
-4.67064
-4.90308
-5.1887
-5.495
-5.69572
-5.58238
-5.07713
-4.26157
-4.72358
-5.0451
-5.2189
-5.53527
-5.93591
-6.41851
-6.91274
-7.289
-7.26155
-6.72825
-5.77904
-5.09706
-5.54666
-5.79332
-6.24662
-6.80971
-7.49031
-8.23701
-8.81949
-8.9467
-8.39526
-7.24892
-5.27181
-5.88124
-6.16884
-6.7435
-7.44954
-8.30352
-9.26224
-10.0993
-10.4608
-9.9201
-8.63851
-5.34237
-5.96262
-6.34616
-6.99756
-7.80292
-8.7812
-9.89023
-10.9615
-11.5155
-11.0326
-9.67166
-5.225
-5.82313
-6.29188
-6.97744
-7.84473
-8.89065
-10.0623
-11.2412
-11.8538
-11.4993
-9.98665
-4.86468
-5.43742
-5.95054
-6.64978
-7.53518
-8.59457
-9.76018
-10.8676
-11.5118
-11.2335
-9.71877
-4.30989
-4.81805
-5.32703
-6.00382
-6.86309
-7.88559
-8.98435
-9.9745
-10.5401
-10.1948
-8.86311
-3.55434
-3.98525
-4.4664
-5.10454
-5.91767
-6.87223
-7.85407
-8.66446
-9.03562
-8.65237
-7.50256
-2.62102
-2.99671
-3.45979
-4.07286
-4.84719
-5.72866
-6.57398
-7.16796
-7.2838
-6.8005
-5.79915
-1.63338
-2.01044
-2.49793
-3.11831
-3.86824
-4.67355
-5.36893
-5.73268
-5.58207
-4.9191
-4.02089
-0.865625
-1.32638
-1.88903
-2.53
-3.24257
-3.95374
-4.49087
-4.62515
-4.21534
-3.36975
-2.42533
-0.628898
-1.19136
-1.8099
-2.43698
-3.08852
-3.70243
-4.09515
-4.00845
-3.35326
-2.34047
-1.21897
-0.9
-1.48053
-2.08141
-2.68943
-3.31124
-3.84607
-4.08313
-3.74136
-2.81217
-1.71567
-0.621302
-1.49339
-2.07029
-2.65784
-3.21001
-3.7515
-4.07835
-3.86421
-3.17754
-2.28109
-1.38558
-0.666637
-2.08001
-3.01038
-3.45213
-3.66358
-3.67199
-3.45158
-2.99472
-2.3744
-1.7237
-1.12983
-0.663124
-4.46497
-3.71688
-3.17373
-2.85175
-2.6447
-2.40367
-2.07504
-1.68866
-1.29437
-0.929615
-0.626435
24.2435
20.1498
16.3276
13.0657
10.5079
8.52623
6.95562
5.68122
4.64256
3.8238
3.25832
14.5869
16.3436
15.6856
14.1055
11.9031
9.80091
7.94806
6.41621
5.183
4.22234
3.54641
2.74742
8.06034
9.7055
10.7316
10.22
9.22438
7.90082
6.57427
5.38827
4.41401
3.71784
-4.01718
1.09573
2.91903
5.61921
6.69124
7.05323
6.67976
5.94697
5.08987
4.27997
3.63237
-6.78768
-2.97382
-1.98749
1.28315
2.85816
4.16929
4.68947
4.6771
4.32157
3.83021
3.38509
-7.79987
-4.84115
-4.58597
-1.66819
-0.111043
1.54448
2.57133
3.12202
3.25242
3.12365
2.92056
-7.79369
-5.70659
-5.39642
-3.33533
-2.00725
-0.384653
0.796359
1.65467
2.1316
2.31862
2.35492
-7.06826
-5.87283
-5.44811
-3.98053
-2.96357
-1.5621
-0.447484
0.502067
1.15688
1.55067
1.78057
-6.33746
-5.51399
-5.17661
-4.05208
-3.28535
-2.13067
-1.17401
-0.264128
0.437122
0.93866
1.28906
-5.81314
-5.06036
-4.76259
-3.83428
-3.24037
-2.28541
-1.49578
-0.68075
-0.0135051
0.516138
0.927546
-5.05002
-4.42816
-4.19726
-3.42391
-2.96784
-2.17148
-1.53357
-0.826612
-0.232844
0.268434
0.678994
-3.95234
-3.56138
-3.4568
-2.8505
-2.52899
-1.87259
-1.37336
-0.773033
-0.268152
0.181055
0.553815
-3.08107
-2.77203
-2.70821
-2.21736
-1.9976
-1.45584
-1.07876
-0.576728
-0.165563
0.2198
0.54579
-2.47836
-2.13372
-2.04523
-1.60831
-1.4447
-0.985198
-0.703892
-0.287635
0.0329538
0.346464
0.605311
-1.66538
-1.41124
-1.37713
-1.00866
-0.890238
-0.495655
-0.288513
0.0564671
0.293618
0.533642
0.71855
-0.976552
-0.762446
-0.750542
-0.42734
-0.343618
0.00161027
0.144952
0.433741
0.592737
0.757522
0.870805
-0.492111
-0.238744
-0.19669
0.116929
0.187134
0.498993
0.610889
0.814517
0.91125
0.998216
1.0332
0.0963252
0.330805
0.36327
0.656463
0.73797
0.988473
1.08289
1.21369
1.23819
1.23958
1.19507
0.707342
0.913126
0.927157
1.19775
1.30809
1.50968
1.56924
1.61742
1.5577
1.46581
1.3406
1.32592
1.51107
1.50128
1.79585
1.9163
2.06307
2.065
2.00845
1.84902
1.6589
1.45388
2.0441
2.23913
2.18339
2.56277
2.61051
2.64841
2.54694
2.35684
2.0848
1.80074
1.52676
3.02697
3.22632
3.21159
3.5849
3.43961
3.26408
2.97774
2.62024
2.23442
1.8765
1.558
3.83935
4.53779
4.61034
4.89533
4.42182
3.89296
3.3238
2.77313
2.29035
1.89357
1.58591
6.51114
6.65006
6.64295
6.35347
5.36918
4.37672
3.46395
2.72274
2.1773
1.77762
1.48618
15.3585
14.7934
13.0871
11.1787
9.21845
7.53405
6.13562
4.99382
4.06935
3.34805
2.85114
-5.39363
3.29123
6.0354
7.33879
7.10309
6.24412
5.20697
4.2422
3.42886
2.79779
2.37476
-18.8969
-8.81036
-4.61799
-0.11753
2.23099
3.20962
3.25042
2.88418
2.43189
2.01318
1.71732
-23.995
-16.5918
-13.3761
-7.71838
-3.88907
-1.19064
0.287832
0.801212
0.982152
0.956322
0.935071
-24.3996
-19.7422
-17.9766
-12.9233
-9.09856
-5.62617
-3.16314
-1.63873
-0.787795
-0.327885
-0.0215769
-23.2392
-20.1384
-19.326
-15.4179
-12.366
-8.94769
-6.16319
-4.03807
-2.62747
-1.68576
-1.04187
-21.8002
-19.4927
-19.103
-16.0835
-13.878
-10.889
-8.26825
-5.97988
-4.23004
-2.93523
-1.97717
-20.269
-18.4913
-18.3033
-15.815
-14.276
-11.7258
-9.46977
-7.27472
-5.43053
-3.95671
-2.80904
-18.9231
-17.4159
-17.3568
-15.1255
-14.0909
-11.8318
-9.97137
-7.95459
-6.18329
-4.66104
-3.44141
-17.8152
-16.3787
-16.4077
-14.2578
-13.6168
-11.4928
-9.99781
-8.14593
-6.52136
-5.0393
-3.79766
-16.7814
-15.5778
-15.3243
-13.4437
-12.9046
-10.9075
-9.69756
-7.97846
-6.51684
-5.11606
-3.92451
-15.5678
-14.6199
-14.1237
-12.6735
-11.9692
-10.1919
-9.1498
-7.55315
-6.25027
-4.94759
-3.85711
-14.4252
-13.5164
-12.9758
-11.7102
-10.9209
-9.40474
-8.40466
-6.94667
-5.78453
-4.5968
-3.60996
-13.3711
-12.4065
-11.8406
-10.6415
-9.84562
-8.49618
-7.51584
-6.20624
-5.16647
-4.11083
-3.20832
-12.1414
-11.1952
-10.6476
-9.50844
-8.71368
-7.47113
-6.52588
-5.35706
-4.43076
-3.52312
-2.75131
-10.8927
-9.94062
-9.39916
-8.3069
-7.50503
-6.34641
-5.44364
-4.41198
-3.60406
-2.86047
-2.26169
-9.65091
-8.66199
-8.09868
-7.03602
-6.21205
-5.12595
-4.27127
-3.38123
-2.70795
-2.14239
-1.7149
-8.31006
-7.29402
-6.70794
-5.67447
-4.82052
-3.80304
-3.01161
-2.27865
-1.76616
-1.39154
-1.14094
-6.82534
-5.78746
-5.18469
-4.18707
-3.30634
-2.37122
-1.67333
-1.12934
-0.813704
-0.642231
-0.556922
-5.13921
-4.06973
-3.47436
-2.52617
-1.64839
-0.826016
-0.283424
0.0173058
0.096598
0.0543653
-0.0498955
-3.16744
-2.03563
-1.48821
-0.611162
0.197218
0.82336
1.09214
1.08278
0.906773
0.672975
0.439633
-0.97625
0.32783
0.879744
1.64236
2.22581
2.48866
2.29625
1.92828
1.52907
1.15819
0.843604
1.57853
3.0102
3.71292
4.2667
4.34784
4.12403
3.2978
2.57141
2.00528
1.54316
1.17693
3.35887
5.7996
6.35709
6.00348
5.45582
4.42104
3.36672
2.57572
2.01129
1.6007
1.36204
-1.49087
1.2561
1.96
1.94698
1.64814
1.28038
0.928988
0.611143
0.32576
0.0830487
-0.068396
-16.549
-8.34844
-4.98276
-2.68655
-1.30546
-0.653066
-0.400343
-0.347065
-0.389065
-0.466625
-0.513477
-18.6091
-13.3794
-10.8041
-7.65269
-5.05016
-3.29052
-2.21195
-1.60274
-1.27903
-1.10893
-0.994843
-15.658
-13.8616
-12.7929
-10.3212
-7.8461
-5.7316
-4.10885
-2.99806
-2.28559
-1.83596
-1.53425
-12.4429
-12.1204
-11.9273
-10.5674
-8.91329
-7.14021
-5.50573
-4.19178
-3.2267
-2.54851
-2.05459
-10.1392
-10.1782
-10.2161
-9.5721
-8.65482
-7.44332
-6.1373
-4.92845
-3.91963
-3.13493
-2.5234
-8.3906
-8.54286
-8.59746
-8.29376
-7.81027
-7.05505
-6.13284
-5.17466
-4.28101
-3.51539
-2.86956
-7.02014
-7.16828
-7.20847
-7.07957
-6.83448
-6.38115
-5.76675
-5.06259
-4.34249
-3.67622
-3.06896
-6.04766
-6.08254
-6.09433
-6.04549
-5.92451
-5.65655
-5.2571
-4.75782
-4.20347
-3.65399
-3.12007
-5.40463
-5.32542
-5.30053
-5.26043
-5.17995
-5.00706
-4.73926
-4.38431
-3.96377
-3.52192
-3.06274
-4.99788
-4.81246
-4.76833
-4.70001
-4.61493
-4.47874
-4.2797
-4.01458
-3.69046
-3.33789
-2.96025
-4.75779
-4.50376
-4.4055
-4.29909
-4.19268
-4.06242
-3.89353
-3.67895
-3.41804
-3.12992
-2.81671
-4.60041
-4.31421
-4.17372
-4.02445
-3.88492
-3.74193
-3.57943
-3.38799
-3.16316
-2.91614
-2.64591
-4.46388
-4.16634
-4.0028
-3.8264
-3.66025
-3.50064
-3.33245
-3.14552
-2.93498
-2.70867
-2.4687
-4.33525
-4.0385
-3.86256
-3.67063
-3.48732
-3.31502
-3.1386
-2.94643
-2.73491
-2.51309
-2.28792
-4.23595
-3.94801
-3.7692
-3.57213
-3.37665
-3.19112
-2.99984
-2.79082
-2.56269
-2.32881
-2.10343
-4.17475
-3.90021
-3.72529
-3.53249
-3.33293
-3.13269
-2.91879
-2.67882
-2.41677
-2.1535
-1.90769
-4.14396
-3.88611
-3.71933
-3.53536
-3.33682
-3.1234
-2.88
-2.59726
-2.28883
-1.98804
-1.72488
-4.13493
-3.89828
-3.74436
-3.57257
-3.37615
-3.14576
-2.86361
-2.52827
-2.16786
-1.82956
-1.54834
-4.14106
-3.92865
-3.79255
-3.63364
-3.43452
-3.17694
-2.8449
-2.45218
-2.04662
-1.68191
-1.3842
-4.13888
-3.96178
-3.85053
-3.7033
-3.49089
-3.19299
-2.80727
-2.36441
-1.93055
-1.56129
-1.26119
-4.07298
-3.98559
-3.9118
-3.75969
-3.51479
-3.17744
-2.75339
-2.28024
-1.84175
-1.4965
-1.25893
-4.11536
-4.12572
-4.02555
-3.81838
-3.54491
-3.20732
-2.79926
-2.35007
-1.91574
-1.55563
-1.27065
-4.3719
-4.00254
-3.72134
-3.49156
-3.24951
-2.94554
-2.55181
-2.11138
-1.74129
-1.55662
-1.54117
14.7274
10.2933
7.16824
5.11835
3.71083
2.72427
1.99814
1.41982
0.946037
0.565327
0.306391
11.7071
11.4674
9.78257
7.76044
5.88445
4.3535
3.20717
2.28342
1.5682
1.0267
0.669457
7.31806
8.63363
8.63217
7.94456
6.68686
5.24962
3.94293
2.86847
2.01559
1.36221
0.928544
3.3571
5.42968
6.12893
6.39
6.00429
5.17494
4.16732
3.16419
2.2789
1.56582
1.10046
0.543119
2.53456
3.38747
4.21055
4.55605
4.37643
3.8297
3.04777
2.289
1.62358
1.16768
-1.32079
0.349115
1.06453
2.04141
2.67945
2.9956
2.93195
2.53381
2.01287
1.48166
1.08267
-2.53348
-1.15939
-0.639646
0.313661
1.03117
1.54032
1.77869
1.72821
1.47228
1.12531
0.850457
-3.29269
-2.16952
-1.84136
-0.966074
-0.306944
0.273016
0.656785
0.831469
0.800814
0.642945
0.495486
-3.88183
-2.8823
-2.73054
-1.8848
-1.35445
-0.765833
-0.315474
-0.0202855
0.108633
0.107115
0.0649793
-4.39551
-3.49821
-3.36282
-2.63657
-2.14007
-1.5896
-1.12485
-0.765414
-0.534927
-0.417818
-0.35597
-4.78877
-4.11695
-3.83179
-3.23242
-2.76327
-2.2423
-1.78144
-1.3903
-1.09628
-0.902627
-0.767666
-5.05688
-4.50037
-4.21706
-3.68728
-3.24875
-2.75638
-2.30581
-1.90063
-1.56708
-1.31799
-1.13664
-5.29183
-4.77596
-4.5137
-4.0298
-3.61768
-3.15188
-2.71454
-2.30567
-1.94935
-1.65871
-1.43587
-5.51802
-4.99953
-4.74087
-4.28464
-3.89111
-3.44709
-3.02264
-2.6159
-2.24936
-1.93479
-1.6782
-5.5981
-5.12458
-4.89042
-4.46224
-4.08455
-3.65874
-3.24543
-2.84364
-2.47434
-2.14749
-1.87335
-5.63835
-5.1974
-4.97857
-4.57472
-4.20882
-3.79851
-3.39433
-2.99855
-2.63096
-2.30143
-2.02421
-5.66721
-5.23943
-5.02077
-4.63339
-4.2725
-3.87335
-3.47598
-3.08683
-2.72465
-2.39875
-2.11726
-5.63917
-5.22939
-5.01092
-4.63825
-4.27789
-3.88578
-3.49356
-3.11211
-2.75956
-2.44726
-2.18111
-5.55714
-5.16655
-4.94637
-4.58618
-4.22305
-3.83501
-3.44803
-3.07653
-2.73732
-2.44222
-2.19523
-5.43409
-5.05647
-4.82673
-4.47346
-4.10444
-3.71962
-3.3409
-2.98308
-2.66058
-2.38575
-2.15974
-5.26022
-4.88805
-4.64044
-4.28977
-3.91694
-3.54094
-3.17826
-2.839
-2.53491
-2.28168
-2.08295
-5.0063
-4.63298
-4.35863
-4.01413
-3.65381
-3.30368
-2.96895
-2.65097
-2.36234
-2.12617
-1.95688
-4.71647
-4.2893
-3.99273
-3.68792
-3.37792
-3.07672
-2.77508
-2.47027
-2.18469
-1.95197
-1.80981
-3.92931
-3.57178
-3.34281
-3.14745
-2.94448
-2.71917
-2.45548
-2.16874
-1.89974
-1.66665
-1.52149
-1.42574
-2.07717
-2.50518
-2.16771
-1.21981
-0.285615
0.218677
0.420105
0.107475
-1.32335
-1.70546
-1.98251
-1.67222
-1.02788
-0.310928
0.106649
0.260543
-0.00668633
-1.26247
-1.60803
-1.83594
-1.62635
-0.966444
-0.362128
-0.00203849
0.125865
-0.108631
-1.19696
-1.49015
-1.64504
-1.37282
-0.911848
-0.410216
-0.0956187
0.0211085
-0.211774
-1.2076
-1.24826
-1.33094
-1.52905
-1.8645
-2.25858
-2.27315
-1.75053
-0.815314
-1.21617
-1.25128
-1.32375
-1.45131
-1.64102
-1.88375
-1.85153
-1.41945
-0.732231
-1.20251
-1.23298
-1.29207
-1.3998
-1.56591
-1.77441
-1.74952
-1.35684
-0.711434
-1.18757
-1.18995
-1.2474
-1.33518
-1.45353
-1.60262
-1.56236
-1.24592
-0.707897
0.855499
0.862655
0.857302
-0.261712
-0.757235
0.759872
-1.16218
0.658821
0.754439
1.17756
-0.783529
0.661455
-0.524793
-0.0973565
0.852818
0.400138
-0.105226
-0.232179
0.399093
0.897012
0.284727
-1.06819
0.510974
-0.257477
0.888272
-0.0976073
-0.522378
-1.14706
-0.36829
-0.834318
-0.103991
0.374797
-0.0544792
0.472438
0.39297
0.858622
-0.240007
0.887368
-0.058173
0.651989
-0.674157
0.476746
-0.130643
0.514427
-0.807339
-1.02732
-0.111518
-1.44312
0.728514
0.645558
-0.811135
0.655736
0.0222955
-0.122299
0.635746
0.282314
-1.06309
0.641608
-0.273175
-0.0682938
-0.243299
0.0187527
-0.815054
-0.91767
-0.751992
0.892344
-0.36072
0.672489
0.856425
1.15839
-0.264859
1.21404
-0.228647
1.23041
-0.0364934
1.14362
-0.93795
0.487689
-0.864501
-1.07771
-0.0385026
-0.890128
0.870888
0.871774
-0.312265
-0.207982
-0.756588
0.0117342
-1.07041
-0.0996434
0.849749
0.638462
-0.687161
0.984662
-1.01268
-1.54105
-0.0399028
-0.551793
-1.02628
1.23416
-0.0636146
-1.39482
0.967408
-0.0532354
-0.84918
0.804756
-0.0156164
0.869855
-0.0379318
0.108694
0.522736
0.474427
1.02343
-0.472551
-0.065802
0.868503
0.632907
0.455462
0.686044
0.852582
-0.514853
1.27664
-0.141024
-0.131802
-0.986962
-0.599413
-0.000650347
-0.0146498
-0.00576611
-0.0345473
0.578735
-0.063738
-1.40482
1.16518
0.828106
-0.386036
-0.975477
-0.833926
-0.854282
0.847702
-0.0927327
0.252954
-0.882004
0.619624
0.623005
-0.34995
-0.608102
0.668127
1.2774
0.472148
0.524106
0.782956
-0.335389
1.23519
-0.39239
-0.121823
-0.132103
-1.07619
-0.142505
0.90838
-0.51044
-0.840761
1.18486
0.900667
-0.360424
-0.1284
-1.01074
0.37979
-0.566769
-0.764391
-0.0433737
-0.0416312
-0.548222
0.178136
0.402418
0.343802
-0.0082403
-0.43027
-0.836183
0.377727
0.652089
-1.0518
0.837095
-0.713323
0.761003
-0.723596
0.520679
0.442386
0.884193
-0.842469
-0.0489903
-0.143317
0.851706
-0.662702
0.852547
0.919327
0.786845
-0.995914
-0.0355931
0.868676
-0.739777
0.686333
-0.102746
-0.159189
0.830569
0.021112
0.967279
-0.00656287
0.680607
0.856728
-0.0784927
0.434535
0.0945032
0.478597
0.49206
-0.0173147
0.854432
-0.0669417
0.553076
-0.199724
-0.026285
-0.429381
-0.0515659
-0.071338
-0.110287
0.611588
-0.680887
-0.095139
-0.0377209
-0.899528
-1.06654
0.846511
0.526499
1.32852
-0.393813
-1.22357
-0.116107
0.840423
0.590901
0.593172
-0.0427911
-0.500602
-0.0943392
-0.662217
0.801287
-0.856036
0.466539
-0.223828
-1.31425
-0.0135238
-0.210002
-0.0857736
0.298292
0.934826
-0.252324
0.779567
0.322762
0.889351
-0.51131
0.514273
-0.00776871
-0.570309
0.847153
0.501501
0.520225
-0.115451
0.234747
0.640429
-0.436944
-0.410023
-0.754171
0.557435
0.703799
-0.121029
0.910983
0.453018
-0.17546
0.851525
0.825194
-0.853677
1.2387
0.708462
-0.0375976
-0.103239
-0.216854
0.91739
-0.751729
0.618518
0.729521
-0.10554
0.573107
-1.10878
0.31256
-0.103417
0.852373
0.678437
-0.568686
0.521859
0.451956
-0.217244
0.72522
-0.620671
0.646277
-0.849213
0.334077
0.078542
0.497683
-0.00669386
-1.04454
0.5387
-1.12567
0.800714
0.0231065
-0.0420754
-1.0561
0.766725
-0.337129
-0.896394
0.790206
1.05427
0.507619
-0.0138908
0.43916
-0.379998
-0.840008
0.339796
0.471411
-0.344511
0.840919
0.0154924
0.571899
-0.796407
-0.886317
0.770194
-0.439624
-1.32628
-0.14966
0.501953
0.846811
-0.537032
-0.7325
-0.091262
0.693412
-0.200005
-0.744937
-0.00991184
-0.0459016
0.459223
-0.309303
-0.000258044
-1.14594
-0.546756
-0.386139
0.343425
-0.0930973
0.868932
-0.0197221
0.556255
0.506018
0.00322581
-0.395905
-0.113633
0.853016
0.868508
0.976667
-1.03686
-0.0414775
-0.116991
-1.18951
-0.0242381
0.859113
-0.71319
-1.33287
-0.0511227
-0.0883162
0.568351
-0.251501
0.36425
0.928548
0.473595
-0.0645762
0.928554
-0.486541
0.601956
-0.142317
-0.142552
-0.535933
-0.113672
-0.440281
-1.06512
0.783894
-1.08799
-0.0418953
1.56653
-0.157227
-0.755208
0.495307
0.490662
0.704807
-0.0811418
-0.488191
0.868674
0.767827
-0.0801693
-0.0133424
-0.788327
-0.947769
-0.0353239
0.675695
-0.0112412
0.407003
0.393696
-0.106112
-0.101741
-0.21266
-0.034126
-0.0530549
1.27732
-0.0229499
-1.07755
-0.75703
-0.0250035
-1.19632
-0.0128186
0.32413
0.136386
1.22213
-0.0273327
-0.527611
-0.808979
0.459102
-0.504409
-0.179995
0.761123
-0.45784
-0.0452277
-0.622769
-0.847688
-0.139803
0.454818
-0.258214
-0.846261
-0.106204
-0.556513
0.405441
-0.0828393
-0.0390535
-0.912555
0.932535
-0.793067
0.777077
0.871946
0.851263
-1.06501
-0.627033
-1.19164
-0.0484036
-0.821398
-0.00959677
0.884601
0.939365
-0.00368013
-0.0581863
-0.276802
0.388126
-0.0142085
-0.0128079
0.865017
0.441169
0.583799
0.314915
-0.566784
0.440677
-0.276246
0.407423
0.573578
0.552389
0.852249
-0.85653
0.518486
0.887049
0.301366
-0.927658
-1.03398
0.503964
-0.260069
-0.779733
0.650073
-0.0683073
0.89374
-0.821099
0.924105
0.402447
0.60668
-0.00666906
-0.145318
0.85939
-0.183468
0.046656
0.641832
-0.393021
-0.329321
0.751271
0.87898
-1.26468
-0.0307475
-0.353588
0.54629
-1.33412
0.453109
-0.371909
-0.137405
-1.08359
-0.133597
-0.0552907
-0.16444
-0.0861755
-0.181062
0.457632
-0.479734
0.774486
0.714294
0.880921
0.569784
0.365321
-0.0697165
0.659646
0.895317
-0.566688
0.72846
-0.95529
-0.300715
-0.00801867
-0.264443
-1.06347
0.872574
0.872641
0.710569
-0.689773
-0.869849
0.464462
0.893955
-0.122393
0.76298
-0.0942793
0.763508
0.0113
0.8019
-1.10153
-0.0715479
-0.0250816
-1.12061
-0.356628
0.332843
0.214691
1.24215
0.556377
-0.0429671
-0.967604
0.822033
-0.106059
-0.762017
-1.63489
0.882365
0.805356
0.802076
-0.0367462
-0.0978093
-0.0308511
0.775128
0.582327
-0.0907152
0.978402
-0.110871
-0.0231383
-0.028669
-0.782663
0.51848
-0.0180337
0.877743
-0.0792035
0.891861
-0.0180869
-0.00994382
0.459247
-1.03705
-0.106408
0.662256
0.485349
-0.973901
0.902404
-0.478224
-0.53612
-0.105496
-0.0615809
-0.720589
-0.30167
1.12024
0.671016
0.75704
-1.49344
-0.112597
-0.0933172
0.881492
0.877212
-0.962179
0.507993
0.984539
0.379716
1.2317
-0.132507
-0.108845
-0.124366
-0.421728
-0.126584
0.326146
0.929414
-0.305638
1.15523
0.724885
-1.34676
-0.0798797
0.429677
0.920531
-0.963265
0.954413
0.932835
-0.175001
0.803497
0.295742
-0.208795
-0.10639
-0.34238
-0.0224194
-0.0246732
-1.01547
-0.0198187
-0.375637
-0.408936
-0.309977
-1.03392
-0.126451
-0.187584
0.454948
0.386533
-0.838831
-0.13344
0.436011
0.167107
-0.189408
-0.125282
-1.29484
-0.387219
-0.279444
0.476555
0.215818
0.877944
0.489102
0.972189
-0.398701
1.14875
0.510957
0.424843
0.552394
-0.477841
-0.053407
-0.876307
1.16891
0.506063
0.559112
-0.0355166
1.05207
-0.939372
1.07926
-0.097442
-0.00422134
0.500852
-0.0115775
0.882422
-0.0509617
-0.707984
-0.12676
-1.37392
-0.503153
-0.258362
0.869805
-0.0190448
-0.0603473
-1.07865
0.00031883
0.45133
-0.00258758
0.871258
-0.408815
0.430823
-0.254043
0.781363
0.687894
0.917029
-0.544851
-0.118013
0.875817
-0.0100966
0.870354
-0.0809374
-0.150063
0.181243
-0.573932
-0.681757
-0.0949255
-0.207024
-0.551736
-0.339232
-0.292221
-0.0446838
-1.17521
0.457556
-0.145549
0.567461
0.547922
-1.12134
-0.535432
-0.837892
-0.0926279
0.97197
0.295605
0.835023
-0.0690062
0.884572
0.0121868
-0.0958313
0.0228101
0.192364
-0.289381
-0.082693
-0.0540435
1.38487
-0.251075
-0.765996
-0.851565
0.532737
-0.116805
-0.788161
0.855471
-1.01673
-0.024448
1.13032
-0.078918
0.585167
0.412052
0.938416
-0.0311383
1.27385
-0.0575726
0.812645
-0.0548275
1.24674
-0.106502
-0.0397735
-0.0844245
-0.0226348
0.43344
-0.632164
-1.1773
0.885058
-0.055252
-0.230947
-0.0867534
0.249261
-1.05507
0.37028
-0.0635378
-0.0773014
0.254326
0.473671
-0.351139
0.474528
-0.0443747
-0.79258
0.85538
0.67958
-0.0283138
-0.765055
-0.0274476
-0.28719
0.652823
-0.142676
0.223899
0.467905
0.884259
0.786946
0.564822
0.782118
-0.0167569
-1.08523
-0.709213
-0.0452402
-0.488183
0.909461
0.604657
-0.343252
-0.16106
0.841414
-0.400011
-0.163754
-1.29923
-0.123154
-0.467097
0.192357
-0.0733608
0.909893
0.578403
-0.995416
0.81965
0.660021
0.132542
-0.00791435
-0.294898
-0.254818
0.857506
-0.319441
-0.71382
-0.186262
0.647369
-0.0232886
-0.0829435
-0.103336
-0.0870773
0.878831
0.467768
-0.237236
-0.11724
-0.0928539
0.871832
0.434312
1.07557
0.893383
0.636318
-0.0392805
-0.367221
-0.974324
-1.2519
-0.0826929
0.744332
-0.899892
0.882093
1.08306
-0.161809
0.600463
0.849348
0.657018
-0.919909
0.0152477
-0.125999
0.853475
-0.0910457
0.902256
0.807767
0.816519
0.922229
0.186141
0.505138
0.836692
0.875377
-1.43885
0.473945
0.917399
-0.510583
-0.937705
0.581509
0.849003
-0.856293
-1.44452
0.492172
-0.384144
-0.121435
-0.106861
0.55589
0.879972
0.336073
0.586291
0.00527356
0.613731
-0.549221
-0.1084
-0.0188834
-0.0832676
0.520819
-0.109645
0.837577
0.504626
1.34564
0.523741
0.490892
-0.554317
-0.966288
-0.217181
-0.290579
0.0158241
-0.111009
-0.148978
-1.02335
0.485815
0.523208
-0.016437
-0.0231339
-0.119089
0.682163
-0.785462
1.00847
-0.251687
0.960348
-0.0169712
-0.0635141
-0.823604
-0.217671
0.921141
0.879481
-0.0421343
-0.995211
0.00219374
-0.450816
-0.127243
0.232665
0.333343
0.00475926
0.876297
0.830165
-0.473952
-0.810069
-0.863442
-0.873279
-0.0230151
-0.112602
-0.00625641
-0.973902
0.877304
0.245011
0.000912069
0.900739
0.312578
0.813058
-0.0865427
-0.0970114
-0.0384568
0.881848
-0.23258
0.746333
0.649281
-0.0580942
-0.430531
0.511002
0.845882
0.882832
-0.524063
-0.510035
-1.07504
-0.0335197
0.977501
-0.722161
-0.078304
-1.11707
0.873927
-0.0317179
-0.0608863
0.740958
-0.0333123
0.619598
-0.0995028
-0.307682
-0.149392
-0.424956
0.726454
0.930892
-0.176285
-0.0945963
0.507125
-0.0308939
0.849832
-1.25521
-0.00550446
-1.59536
0.871487
-0.0228372
-0.617628
-0.822632
-0.0232018
-0.0687473
0.869047
-0.0101146
-0.954302
0.493055
0.0676962
-0.0260742
-0.128005
-0.171912
-0.349498
0.68076
0.944078
-1.03632
0.406366
-0.720372
-0.100891
-0.00538161
-0.123277
0.639082
-0.184283
-0.986131
-0.0280235
-0.0860659
-0.0819167
0.927171
-0.266278
-0.0210967
0.88583
0.999218
0.822605
-0.0794303
0.201901
0.737227
-0.385854
-0.0574816
-0.0603257
0.526005
-1.14156
-0.685977
0.219075
-0.498252
0.463516
1.21414
0.811241
-1.22859
0.474974
-0.0322707
-0.130349
-0.99406
0.505687
0.320699
0.873114
0.888898
-0.334455
-0.0823906
-0.0612626
-0.813222
-0.822887
-0.935109
1.05694
0.111577
-0.648588
0.878814
-0.0516519
0.0113321
0.576777
-0.362759
-0.485159
-0.0590461
0.418909
-0.0944575
0.877199
-0.0488718
0.540308
-1.24273
-0.569344
1.30686
-1.07662
-0.163585
0.353218
-0.40039
-0.0848016
-0.516162
-0.135024
0.21179
-0.904576
-0.0289067
-0.560157
-1.10338
-0.234609
0.792127
-0.536779
0.743748
-0.418102
-0.118702
-0.671203
0.150171
-0.107498
-0.803322
0.906202
0.664562
0.372953
0.536563
-0.102319
-0.390309
1.13888
-0.111991
-0.814367
0.505076
-0.74744
-1.09795
-0.431013
-0.497206
-0.75772
-0.104289
-0.0447395
-0.0131101
0.899668
0.891796
-0.155247
0.923571
0.837561
-0.411292
0.869152
0.828117
-0.0667964
1.39135
-1.38185
-0.0992185
-0.128572
0.942999
-0.310663
-0.077085
-0.107165
-1.18383
0.882333
-0.102363
-0.0541107
-0.0859761
-0.014804
0.398652
-0.0308101
0.81733
-0.728746
-0.0282614
0.649048
0.939321
-0.361469
-0.273646
-0.576653
-0.862457
-0.278867
1.01101
0.826472
0.893638
-0.375361
-0.0284241
-0.0593006
-0.91193
-0.769733
1.54601
0.170756
0.832579
0.78609
-0.757819
0.919144
0.500836
-0.659539
-0.510913
-1.35367
-0.830884
0.534085
0.441585
-0.027538
-0.955351
-0.037491
-1.12723
-0.27192
0.791796
0.559265
-0.114562
-0.00896515
-0.0549209
-0.114741
0.932237
-0.131741
-0.0314814
-0.102809
0.372406
-0.473235
-0.8155
0.577489
-0.533044
0.493684
1.17189
-0.950686
-0.070372
-0.375634
0.268284
0.821371
-0.326502
-0.829537
-0.49683
-0.122595
-0.882086
-0.5573
0.639552
-1.2312
-0.772677
0.882231
-0.00930708
-0.10592
0.828108
-0.0181194
0.886641
0.885403
1.18433
-0.690843
-0.00578228
0.446935
-0.081283
0.882034
0.497029
0.871944
-0.156178
0.456353
-0.101288
-0.687877
0.889397
-0.912664
-1.07989
-0.155564
-0.711488
-0.477763
-0.236873
-0.0101815
0.664579
0.507629
0.817624
-0.0834635
0.868452
0.508268
-0.517302
-0.970296
-0.0884587
-0.0704232
-0.00341358
0.662651
-0.811612
-0.697376
0.452998
-0.300609
0.422908
-0.023593
0.794614
-0.058069
0.286001
1.05611
0.721913
-0.866788
-0.00842911
0.685367
-0.204422
0.44842
-0.0352554
0.00705518
-0.45028
-0.116584
0.907108
0.84889
0.0134069
-0.56323
-0.0992774
-0.0130371
-0.651823
-0.0545847
0.891327
-0.885659
-0.0485524
0.906331
-0.131585
-0.0973644
-0.394085
-0.843993
-0.751426
-0.00729403
-0.808864
-0.610701
0.457067
0.642176
-0.0039233
-0.0901823
-0.254392
0.489497
-0.536115
0.84906
1.29114
-1.085
0.878865
0.649255
-1.11647
-0.496787
0.704154
0.864911
0.743302
0.343526
0.53817
0.991627
-0.625065
-0.157133
0.43562
0.788047
-0.241602
0.560408
-0.0455164
0.864885
0.382852
0.65655
-0.303573
-0.955339
-0.0764418
0.928743
0.503301
-0.106272
-0.0318823
0.883372
-0.516401
-0.265625
0.83719
-0.485585
-0.100486
-0.693652
-0.463358
-0.64648
0.642085
-0.469398
0.77121
0.294318
1.0316
0.311703
0.891818
-0.07899
1.00932
-0.844909
0.847799
0.892283
-0.785162
0.514986
0.870907
-0.725132
0.00545335
-0.304049
0.928987
0.282895
0.778624
-0.0151455
-0.042668
-0.286789
0.444114
-0.363031
-0.68644
0.533248
0.438879
0.486813
0.206555
-0.0878935
1.05329
-0.258724
1.17222
-1.118
-0.0759796
-0.120473
-0.125808
0.628926
-0.207987
0.845671
-0.328557
-0.653175
0.908975
0.890793
-0.094696
0.325179
0.416005
1.07917
-0.260702
0.885156
-0.344331
-0.672427
-0.0858545
-0.154611
0.444747
-0.596574
0.775636
-1.10034
-0.128251
0.000888837
-0.0318466
0.865277
0.511344
0.895107
0.418385
-0.189074
0.270018
1.0042
-0.0424798
-0.674358
0.557661
0.230218
-1.09131
-0.186416
0.874047
-0.277035
1.10315
1.54559
-0.229465
0.91607
-0.102854
-0.0875042
0.297203
0.840761
-0.153385
-0.412099
0.950793
-0.0223727
0.90117
1.21734
-0.140025
0.306473
-0.119353
0.882651
0.962763
-1.13635
0.208277
0.486836
-0.571839
0.325218
0.569488
0.43757
0.502667
0.286216
-0.201206
-0.100596
-0.466904
-0.897768
0.564107
0.734376
-0.416773
-0.00651534
0.330558
0.162018
-0.42848
0.975247
0.0111742
0.64977
-0.274153
0.779488
0.971776
-0.0272453
-0.169162
-0.185145
0.874597
0.930093
0.933162
0.856574
0.618149
-0.0845145
-0.0558934
-0.55747
-0.592118
-0.0794547
0.279141
0.559959
0.575328
-0.813038
1.12388
-0.0709559
-1.13049
0.366715
-0.00771319
-0.712461
0.407397
0.869411
-0.117413
-0.558835
-0.265052
0.398431
-0.239116
-0.0356988
-0.827423
-0.0270342
-0.111245
0.525595
-0.210246
-0.548454
-0.901672
-0.488785
-0.309614
-0.0267276
0.88301
1.0786
-0.347314
0.87566
-0.0975049
-0.143877
-0.0382693
-0.208331
-0.177131
-0.650236
-0.438086
-0.117625
0.772781
-0.167471
-0.0921432
-0.294618
-0.45239
-0.629897
0.882253