/*--------------------------------*- C++ -*----------------------------------*\
| =========                 |                                                 |
| \\      /  F ield         | OpenFOAM: The Open Source CFD Toolbox           |
|  \\    /   O peration     | Version:  3.0.1                                 |
|   \\  /    A nd           | Web:      www.OpenFOAM.org                      |
|    \\/     M anipulation  |                                                 |
\*---------------------------------------------------------------------------*/
FoamFile
{
    version     2.0;
    format      ascii;
    class       volVectorField;
    location    "0.640864";
    object      U;
}
// * * * * * * * * * * * * * * * * * * * * * * * * * * * * * * * * * * * * * //

dimensions      [0 1 -1 0 0 0 0];

internalField   nonuniform List<vector> 
21246
(
(6.52861 -1.55156 -7.40296e-20)
(5.90276 -1.53477 2.2577e-19)
(5.57428 -1.2925 -1.01659e-19)
(5.32603 -1.0674 0)
(5.08039 -0.876275 1.63495e-19)
(4.84095 -0.719936 0)
(4.62041 -0.596422 0)
(4.41698 -0.499873 -1.35516e-19)
(4.22675 -0.423777 0)
(4.05069 -0.365589 -2.2117e-19)
(3.89251 -0.334494 -1.34677e-19)
(5.01134 -2.82774 1.9558e-18)
(5.05728 -2.5151 2.88096e-19)
(5.06964 -2.11558 0)
(5.00807 -1.73613 -1.51744e-19)
(4.88371 -1.4154 -2.42987e-19)
(4.71949 -1.15621 -4.60578e-20)
(4.53934 -0.95185 -8.92487e-20)
(4.35848 -0.792165 2.33345e-19)
(4.18332 -0.667299 -1.44826e-19)
(4.01742 -0.571738 1.95656e-19)
(3.86593 -0.509752 2.7069e-19)
(3.85368 -3.06531 0)
(4.21749 -2.81548 -3.14303e-19)
(4.42118 -2.54881 0)
(4.53245 -2.21411 8.23478e-19)
(4.55051 -1.87561 -4.35999e-19)
(4.49322 -1.56626 1.51082e-19)
(4.38562 -1.30187 2.0532e-19)
(4.25122 -1.08508 1.48317e-20)
(4.10664 -0.910756 -8.94654e-20)
(3.96251 -0.772675 6.28958e-20)
(3.82644 -0.673151 -4.94491e-19)
(3.07324 -2.89807 -1.7897e-18)
(3.49411 -2.78751 -7.9708e-20)
(3.79847 -2.66644 -1.73043e-18)
(4.01361 -2.44193 2.69189e-18)
(4.13749 -2.16381 -1.77903e-18)
(4.17891 -1.8715 -8.74877e-20)
(4.15434 -1.59374 2.70422e-19)
(4.08495 -1.34678 -2.85967e-19)
(3.98799 -1.1371 3.81786e-19)
(3.873 -0.969101 -1.8961e-19)
(3.75326 -0.842625 1.08286e-20)
(2.77427 -2.75308 0)
(3.04349 -2.66598 5.81567e-20)
(3.2577 -2.62835 -1.12598e-19)
(3.50455 -2.50721 0)
(3.70231 -2.31297 -1.06598e-18)
(3.82294 -2.0695 6.9811e-19)
(3.86741 -1.81118 -4.69813e-19)
(3.8529 -1.56354 3.51264e-19)
(3.80016 -1.33799 -9.56008e-20)
(3.72731 -1.13762 1.58064e-19)
(3.64041 -0.977372 1.31834e-20)
(2.61111 -2.60529 -2.69091e-18)
(2.81606 -2.53259 2.04276e-18)
(2.95138 -2.53008 0)
(3.13178 -2.45872 0)
(3.30215 -2.32959 -8.1211e-19)
(3.44375 -2.14596 4.67701e-20)
(3.54032 -1.92751 6.43915e-19)
(3.58746 -1.69683 0)
(3.59087 -1.47246 -1.38218e-19)
(3.562 -1.2671 -1.66687e-19)
(3.5105 -1.09646 -1.29684e-20)
(2.49224 -2.46536 2.29543e-18)
(2.63657 -2.39805 0)
(2.73625 -2.40516 1.73137e-19)
(2.88418 -2.34952 0)
(3.02637 -2.26058 -9.88121e-19)
(3.15762 -2.12257 3.43743e-19)
(3.26219 -1.94729 -3.67463e-19)
(3.33312 -1.7498 3.53586e-19)
(3.36972 -1.54644 1.20852e-19)
(3.37562 -1.35189 4.88497e-19)
(3.35326 -1.18298 -2.38141e-19)
(2.36664 -2.36565 -2.03088e-18)
(2.48346 -2.27909 0)
(2.56691 -2.2788 -1.65268e-19)
(2.68143 -2.23494 1.2724e-18)
(2.80098 -2.16298 -7.94035e-19)
(2.91682 -2.05444 1.41292e-20)
(3.01935 -1.91313 1.16119e-18)
(3.10147 -1.74804 -1.37908e-18)
(3.15959 -1.57062 -4.81785e-19)
(3.1929 -1.39443 3.35816e-19)
(3.19881 -1.24021 -1.61155e-20)
(2.25156 -2.27466 1.81641e-18)
(2.35601 -2.17577 0)
(2.42162 -2.16673 1.16572e-18)
(2.51677 -2.12579 -4.36919e-19)
(2.61766 -2.06196 -3.66359e-19)
(2.71874 -1.97016 5.70305e-19)
(2.81414 -1.85177 -8.64288e-19)
(2.89844 -1.71209 9.83628e-19)
(2.96769 -1.5582 9.26623e-19)
(3.01863 -1.40008 -6.68589e-19)
(3.0451 -1.25665 1.32063e-20)
(2.15439 -2.18832 6.55833e-19)
(2.24643 -2.07975 4.72828e-20)
(2.29657 -2.06507 -7.79962e-19)
(2.37721 -2.02429 2.1598e-19)
(2.46367 -1.96451 -3.43861e-19)
(2.5524 -1.8822 -2.69824e-19)
(2.63982 -1.77828 0)
(2.72216 -1.65632 -7.81967e-21)
(2.79594 -1.52055 1.83148e-20)
(2.85672 -1.37754 0)
(2.89452 -1.24227 0)
(2.07284 -2.11439 1.92978e-19)
(2.14819 -1.99413 -1.07666e-18)
(2.18519 -1.97263 -5.03112e-19)
(2.25414 -1.9297 1.13005e-18)
(2.32927 -1.87108 -3.19364e-19)
(2.40816 -1.79381 4.76808e-19)
(2.48859 -1.6988 -3.60367e-19)
(2.56796 -1.58892 -5.7701e-19)
(2.64363 -1.46701 8.23439e-19)
(2.71128 -1.33821 -1.15799e-18)
(2.75852 -1.21964 4.31311e-19)
(1.99206 -2.04872 -8.72154e-19)
(2.05011 -1.91789 -2.81449e-19)
(2.07953 -1.88745 2.28173e-19)
(2.14063 -1.84017 -2.06008e-20)
(2.20766 -1.78029 -2.90161e-19)
(2.27936 -1.70491 0)
(2.35453 -1.61501 1.03554e-18)
(2.43147 -1.51317 -5.19784e-19)
(2.50828 -1.40152 -7.6362e-19)
(2.58108 -1.28375 1.10142e-18)
(2.63666 -1.17391 3.86789e-19)
(1.90821 -1.97923 8.25327e-19)
(1.95274 -1.84131 2.62582e-19)
(1.97734 -1.80356 0)
(2.0329 -1.75209 -3.38059e-19)
(2.09427 -1.68996 -5.22462e-19)
(2.16118 -1.61451 4.05028e-19)
(2.23312 -1.527 -6.26841e-19)
(2.30901 -1.43003 9.35423e-19)
(2.38744 -1.32524 7.114e-19)
(2.46478 -1.21443 -7.87227e-19)
(2.52614 -1.10719 -7.15163e-19)
(1.83028 -1.91137 6.15364e-19)
(1.86129 -1.76365 -6.82767e-21)
(1.87925 -1.71896 7.75753e-19)
(1.92944 -1.66317 6.89339e-21)
(1.98645 -1.59804 -2.46442e-19)
(2.05041 -1.52112 -7.49015e-19)
(2.1211 -1.43413 2.99022e-21)
(2.1976 -1.33995 -1.57839e-20)
(2.27854 -1.24029 3.0586e-19)
(2.36039 -1.13621 0)
(2.42631 -1.03826 2.07576e-20)
(1.75168 -1.84675 -1.1859e-18)
(1.76683 -1.68791 1.61602e-18)
(1.78108 -1.63352 -8.0958e-19)
(1.82807 -1.57161 0)
(1.88263 -1.50208 -1.24559e-19)
(1.94566 -1.42235 -3.41193e-19)
(2.01721 -1.33454 2.62151e-19)
(2.09637 -1.24203 2.02598e-19)
(2.18144 -1.14679 -1.15266e-18)
(2.2688 -1.0492 -3.98179e-19)
(2.34111 -0.956855 3.0771e-19)
(1.67002 -1.77269 -6.27914e-19)
(1.67002 -1.60592 1.65708e-19)
(1.68273 -1.54229 7.60512e-19)
(1.72795 -1.47402 -5.8628e-19)
(1.78176 -1.39926 -1.0797e-20)
(1.84597 -1.31571 0)
(1.92084 -1.22626 1.08499e-19)
(2.00515 -1.13507 2.36898e-20)
(2.09635 -1.04456 2.71157e-19)
(2.19054 -0.954358 3.79484e-19)
(2.26928 -0.869737 1.30733e-19)
(1.59214 -1.69233 5.95955e-19)
(1.57639 -1.51644 -4.60904e-19)
(1.58601 -1.44324 0)
(1.62922 -1.3679 1.18189e-19)
(1.68347 -1.28683 2.61072e-19)
(1.75116 -1.19846 -2.75538e-19)
(1.83232 -1.10703 -1.09125e-19)
(1.92474 -1.01779 9.436e-20)
(2.0242 -0.933647 0)
(2.12605 -0.853142 0)
(2.21057 -0.778764 0)
(1.51593 -1.6099 4.96757e-19)
(1.48084 -1.4223 0)
(1.48827 -1.33596 0)
(1.53105 -1.25072 -5.82283e-20)
(1.58823 -1.16115 3.05083e-19)
(1.66277 -1.06695 -2.34417e-19)
(1.75402 -0.974092 0)
(1.85792 -0.88891 -5.30725e-20)
(1.9676 -0.814239 8.94169e-20)
(2.07749 -0.746753 -1.3291e-19)
(2.16744 -0.684682 9.68673e-20)
(1.43946 -1.51589 4.56456e-19)
(1.38188 -1.31794 -3.48841e-19)
(1.38942 -1.2152 0)
(1.4341 -1.11748 1.53445e-21)
(1.49797 -1.0176 0)
(1.58402 -0.917396 0)
(1.6905 -0.824832 2.33551e-20)
(1.80911 -0.748009 1.64638e-21)
(1.92979 -0.687795 -4.01477e-20)
(2.04681 -0.637504 5.08615e-20)
(2.14092 -0.590501 7.52968e-20)
(1.36419 -1.40391 4.48273e-20)
(1.28062 -1.1966 5.85651e-20)
(1.29231 -1.07294 0)
(1.34344 -0.959852 0)
(1.42053 -0.848674 -7.36456e-20)
(1.52509 -0.744652 3.42096e-20)
(1.65093 -0.658448 4.46282e-20)
(1.78563 -0.596857 -2.45704e-20)
(1.91544 -0.557295 -2.64822e-20)
(2.03495 -0.52937 5.09415e-20)
(2.12986 -0.500225 -8.35874e-20)
(1.29061 -1.27337 2.56001e-19)
(1.18031 -1.04743 -3.22938e-19)
(1.20253 -0.899104 9.16891e-20)
(1.26929 -0.769069 -6.92032e-20)
(1.36882 -0.64913 -1.02723e-20)
(1.49905 -0.54866 1.12478e-20)
(1.64686 -0.478984 -2.99718e-22)
(1.79502 -0.442514 0)
(1.92889 -0.430612 0)
(2.04386 -0.42853 -4.09446e-20)
(2.13329 -0.419855 4.20137e-20)
(1.24452 -1.04907 2.02454e-19)
(1.07575 -0.857374 3.66492e-20)
(1.14091 -0.679502 -2.56353e-21)
(1.23508 -0.537295 7.45311e-20)
(1.36664 -0.419315 4.05869e-20)
(1.52616 -0.337607 -6.24922e-20)
(1.69212 -0.299036 0)
(1.84462 -0.297646 0)
(1.97152 -0.317869 0)
(2.07239 -0.341802 -1.6479e-20)
(2.15003 -0.353982 4.50259e-20)
(1.10823 -1.04513 0)
(1.0676 -0.6504 0)
(1.12963 -0.438318 2.12459e-19)
(1.2718 -0.28521 -8.58978e-20)
(1.44368 -0.185931 2.68557e-20)
(1.62593 -0.141553 1.35954e-19)
(1.79474 -0.145368 -6.06283e-20)
(1.93493 -0.181652 6.33289e-20)
(2.04146 -0.231199 0)
(2.11846 -0.276901 7.97858e-21)
(2.17385 -0.304593 -5.697e-21)
(1.75184 0.127942 2.98459e-19)
(1.11764 -0.0702242 -5.64801e-19)
(1.4366 0.0637057 -2.73253e-19)
(1.58574 0.0909881 1.44181e-19)
(1.73098 0.0847265 -1.01534e-19)
(1.87 0.044727 1.13237e-19)
(1.9887 -0.0203024 -3.74623e-19)
(2.07991 -0.0982333 1.36932e-19)
(2.14325 -0.175169 -3.77899e-19)
(2.18242 -0.238922 1.34922e-19)
(2.20723 -0.278897 5.44564e-21)
(5.88433 -0.690651 -1.00494e-18)
(4.97816 -0.502083 -6.50871e-19)
(5.21977 -0.507449 5.88578e-19)
(5.34789 -0.485147 -2.8628e-19)
(5.23866 -0.417346 2.25005e-19)
(5.00796 -0.343336 -8.73732e-20)
(4.74604 -0.283291 -5.81435e-20)
(4.50494 -0.233725 2.57897e-20)
(4.28487 -0.191035 -6.42011e-20)
(4.08667 -0.164313 3.18894e-20)
(3.91073 -0.161626 2.26308e-19)
(4.42741 -1.55242 8.95034e-19)
(4.10447 -1.00777 -4.27409e-19)
(4.52492 -0.578866 5.46436e-19)
(4.88332 -0.328024 0)
(5.03176 -0.155914 0)
(5.01105 -0.0347678 9.18374e-20)
(4.86099 0.0325725 2.57722e-19)
(4.61868 0.059786 -1.11472e-19)
(4.34116 0.0650545 1.24916e-19)
(4.11129 0.0610156 1.56847e-20)
(3.90689 0.0400761 0)
(3.91215 -4.3971 -2.57888e-18)
(3.98983 -2.39983 4.10466e-18)
(4.18214 -1.34788 -1.84124e-18)
(4.46617 -0.68462 7.55841e-19)
(4.70884 -0.228318 -5.60461e-19)
(4.83672 0.0855299 0)
(4.82235 0.273597 -2.47689e-19)
(4.66829 0.35521 1.24986e-19)
(4.41242 0.357551 -3.81072e-20)
(4.11868 0.316971 -6.05418e-20)
(3.90124 0.268014 4.19567e-20)
(4.37067 -4.44376 -2.4372e-18)
(4.13455 -3.96009 3.61408e-18)
(4.08466 -2.49801 -1.29468e-18)
(4.23907 -1.42591 0)
(4.45219 -0.627144 5.84804e-19)
(4.62233 -0.0408925 -1.27232e-18)
(4.68818 0.355263 2.84179e-19)
(4.61992 0.577245 0)
(4.42275 0.647983 1.9558e-20)
(4.13501 0.609697 2.42021e-19)
(3.86107 0.517151 9.3529e-20)
(4.55247 -4.62423 -1.61306e-19)
(4.39954 -4.31565 -1.19074e-19)
(4.24449 -3.64428 -1.76559e-19)
(4.19997 -2.36729 -1.27532e-19)
(4.31149 -1.26243 1.83619e-19)
(4.44901 -0.386812 1.37393e-18)
(4.53008 0.261276 -6.94485e-19)
(4.50692 0.683151 1.97612e-19)
(4.36137 0.887653 -2.65482e-19)
(4.10274 0.907788 -2.78548e-19)
(3.81545 0.807345 -7.93163e-20)
(4.73797 -4.87361 1.44371e-19)
(4.66918 -4.56606 1.07272e-19)
(4.51341 -4.10607 -2.56284e-18)
(4.36342 -3.28105 2.2062e-18)
(4.30491 -2.04165 1.3488e-18)
(4.34717 -0.907676 -1.14048e-18)
(4.38762 0.00443793 -7.80682e-19)
(4.36141 0.659705 5.80369e-19)
(4.23718 1.04503 3.26876e-19)
(4.0064 1.17487 -6.15358e-20)
(3.70596 1.10693 -8.42984e-20)
(4.90439 -5.135 2.33227e-18)
(4.91669 -4.82516 0)
(4.77334 -4.42329 2.71602e-18)
(4.61006 -3.80083 -2.24405e-18)
(4.43116 -2.78808 -1.74036e-18)
(4.33299 -1.53466 -3.51722e-19)
(4.28028 -0.391236 2.18554e-18)
(4.20309 0.506414 -7.05933e-19)
(4.06107 1.10079 0)
(3.83855 1.3805 3.34445e-19)
(3.5598 1.38534 -3.2408e-19)
(5.05207 -5.3839 2.3681e-18)
(5.1281 -5.08395 0)
(4.98966 -4.72303 1.8039e-19)
(4.82952 -4.16328 -2.43751e-18)
(4.62508 -3.37072 1.91257e-18)
(4.39722 -2.17009 1.17593e-18)
(4.21593 -0.886294 -1.91154e-18)
(4.04199 0.230981 1.00077e-18)
(3.84134 1.0438 2.29511e-18)
(3.59517 1.49798 -1.13483e-18)
(3.33718 1.61879 -5.06013e-19)
(5.18582 -5.61018 3.1191e-19)
(5.30468 -5.32464 0)
(5.15849 -5.01053 3.29909e-18)
(4.99992 -4.48944 -2.56869e-18)
(4.77332 -3.77525 0)
(4.48538 -2.75972 -7.9986e-19)
(4.17781 -1.42959 -6.19501e-19)
(3.87732 -0.151227 1.8241e-19)
(3.58353 0.863169 -1.55609e-18)
(3.2895 1.49896 0)
(3.01259 1.74807 1.7422e-18)
(5.30211 -5.80012 -8.06399e-18)
(5.44487 -5.53444 4.74789e-18)
(5.27674 -5.27319 -8.81642e-19)
(5.11415 -4.79854 -7.23338e-19)
(4.87317 -4.1509 0)
(4.54038 -3.25318 -3.92089e-18)
(4.13621 -1.97475 -1.0444e-19)
(3.70253 -0.616169 3.55575e-18)
(3.2881 0.554333 3.22363e-18)
(2.92022 1.357 -3.58502e-18)
(2.61968 1.74015 -1.22883e-18)
(5.38302 -5.94044 2.65811e-18)
(5.54134 -5.71068 -5.3426e-19)
(5.34236 -5.49969 -3.66412e-18)
(5.16851 -5.07913 2.04493e-18)
(4.90602 -4.50771 0)
(4.54016 -3.70554 0)
(4.05573 -2.56465 3.51961e-18)
(3.50734 -1.1559 -2.47111e-18)
(2.95994 0.117821 2.19354e-18)
(2.50249 1.05788 2.18425e-20)
(2.1626 1.57149 1.75136e-18)
(5.41068 -6.06347 6.15526e-18)
(5.56931 -5.86601 -4.2693e-18)
(5.3568 -5.68226 8.81148e-19)
(5.16167 -5.32642 1.472e-18)
(4.87223 -4.84105 0)
(4.47792 -4.14444 2.20822e-18)
(3.92654 -3.14549 -1.88152e-18)
(3.28414 -1.76437 -2.82382e-18)
(2.60983 -0.44467 -6.25514e-18)
(2.06655 0.591275 1.50759e-18)
(1.70007 1.20798 0)
(5.41479 -6.14822 -5.43681e-18)
(5.54428 -5.97111 4.2321e-18)
(5.31831 -5.82044 3.72149e-18)
(5.08858 -5.53563 -1.42781e-18)
(4.76765 -5.13831 0)
(4.3416 -4.5631 -6.85119e-18)
(3.74968 -3.7284 1.13026e-17)
(3.0364 -2.43549 -3.0243e-18)
(2.25439 -1.12306 -2.12872e-18)
(1.62561 -0.0494589 5.91047e-18)
(1.26619 0.660673 -3.62501e-18)
(5.38239 -6.17355 -3.20262e-18)
(5.45428 -6.03125 1.02861e-18)
(5.21736 -5.91728 3.6368e-18)
(4.94907 -5.69877 -4.38714e-18)
(4.59222 -5.38918 -1.25279e-18)
(4.13099 -4.94843 0)
(3.52579 -4.31248 -1.90238e-18)
(2.73453 -3.22616 3.12074e-18)
(1.92245 -1.89499 2.0418e-18)
(1.23614 -0.827733 -3.17205e-18)
(0.865484 -0.046042 0)
(5.29654 -6.1474 0)
(5.29492 -6.05297 -8.20779e-20)
(5.0436 -5.97496 0)
(4.73783 -5.82291 0)
(4.34389 -5.59696 -1.25148e-19)
(3.84921 -5.26556 3.05553e-21)
(3.24096 -4.78488 1.6779e-18)
(2.51155 -4.06417 0)
(1.6973 -2.8057 0)
(0.951589 -1.67287 0)
(0.569226 -0.875829 1.49298e-18)
(5.15129 -6.06441 -5.23816e-19)
(5.06727 -6.02205 -1.39123e-18)
(4.79386 -5.98759 7.03412e-19)
(4.45584 -5.91047 -3.28017e-18)
(4.03899 -5.78007 9.48029e-19)
(3.54075 -5.56419 1.99824e-18)
(2.95826 -5.21809 -3.15508e-18)
(2.28667 -4.66781 2.50881e-18)
(1.5756 -3.75757 -1.91155e-18)
(0.879158 -2.66579 0)
(0.472421 -1.75531 -1.51255e-18)
(4.92532 -5.91273 7.70721e-19)
(4.75872 -5.92358 4.37993e-19)
(4.45765 -5.94432 -7.22657e-19)
(4.09591 -5.95481 -1.2347e-18)
(3.67601 -5.93578 9.61616e-19)
(3.20721 -5.85084 7.64959e-19)
(2.69766 -5.65075 -2.02708e-20)
(2.14498 -5.26544 2.12925e-18)
(1.55015 -4.597 0)
(0.970504 -3.67018 0)
(0.587694 -2.7241 -8.8302e-19)
(4.58481 -5.68784 1.45925e-18)
(4.34574 -5.74994 2.79992e-18)
(4.01733 -5.84229 1.96209e-19)
(3.64823 -5.9584 -3.38944e-19)
(3.25538 -6.06715 -2.0353e-18)
(2.85635 -6.12128 2.04268e-18)
(2.46372 -6.06434 -2.40667e-18)
(2.07237 -5.83032 1.65683e-18)
(1.66051 -5.35348 -1.25844e-18)
(1.22844 -4.57267 -5.74192e-19)
(0.891224 -3.67932 8.93673e-19)
(4.08824 -5.39841 0)
(3.79995 -5.50572 0)
(3.45586 -5.68728 0)
(3.10829 -5.92295 0)
(2.78388 -6.16194 -4.06235e-19)
(2.50098 -6.33896 0)
(2.2696 -6.3899 0)
(2.07266 -6.25591 1.42954e-18)
(1.86317 -5.89631 -1.70415e-18)
(1.60347 -5.28 1.13798e-18)
(1.35701 -4.4852 -1.47149e-19)
(3.41824 -5.07077 0)
(3.1158 -5.20146 -6.3259e-20)
(2.78603 -5.4415 -5.77833e-20)
(2.51101 -5.7354 0)
(2.33353 -6.02428 0)
(2.25278 -6.22035 -1.34131e-18)
(2.26016 -6.23429 7.94939e-19)
(2.31139 -6.01074 -2.99861e-19)
(2.3086 -5.6134 0)
(2.20996 -5.07384 -2.47251e-19)
(2.07202 -4.28905 1.75665e-19)
(2.48931 -4.40115 -1.33342e-18)
(2.26008 -4.41118 -2.51957e-18)
(2.06461 -4.61783 2.28248e-18)
(1.99008 -4.89074 0)
(2.03052 -5.11014 0)
(2.20742 -5.14379 1.48069e-18)
(2.50316 -4.79608 -8.63966e-19)
(2.71846 -4.38518 1.49396e-19)
(2.77334 -3.864 -2.02286e-19)
(2.63178 -3.39295 2.02825e-19)
(2.37708 -2.72673 0)
(1.6072 -3.84575 0)
(1.52856 -3.7579 0)
(1.54999 -3.80785 -3.49044e-19)
(1.67527 -3.87343 0)
(1.96111 -3.69571 5.22079e-19)
(2.30865 -3.02356 0)
(2.59428 -2.60914 -3.9243e-19)
(2.75903 -2.24305 2.80038e-19)
(2.77779 -1.92067 -1.68862e-19)
(2.66818 -1.63583 0)
(2.45992 -1.30601 0)
(0.67328 -3.56973 4.01093e-18)
(1.43065 -2.65974 5.39223e-19)
(1.47818 -2.47655 -2.30564e-18)
(1.69472 -2.06926 0)
(1.98778 -1.5461 4.20267e-19)
(2.25764 -1.1757 -6.88294e-19)
(2.43653 -0.933066 -5.31117e-19)
(2.52365 -0.767407 0)
(2.52824 -0.663149 -5.42176e-20)
(2.46453 -0.597654 0)
(2.35676 -0.523561 0)
(1.2195 -1.00981 0)
(0.984731 -1.13011 -2.71389e-18)
(1.29613 -0.761093 2.21039e-18)
(1.58895 -0.440665 1.09441e-18)
(1.81995 -0.240502 -4.50609e-19)
(1.99962 -0.139161 -5.86554e-19)
(2.12632 -0.114954 9.71332e-19)
(2.20754 -0.141764 0)
(2.24983 -0.194774 5.62666e-19)
(2.25814 -0.250967 -1.58621e-19)
(2.24333 -0.285287 -5.45731e-21)
(-1.3679 3.29414 -4.20469e-19)
(-0.848198 1.99608 6.13528e-19)
(-0.0612681 1.42076 -7.36371e-20)
(0.572672 1.08933 -5.53878e-19)
(1.05688 0.915665 0)
(1.43498 0.818538 0)
(1.72542 0.765684 5.96555e-20)
(1.94819 0.734906 1.45022e-19)
(2.11925 0.713614 -7.43366e-21)
(2.24903 0.695388 -5.66876e-20)
(2.33904 0.676543 0)
(-0.0490052 4.57762 -1.83667e-18)
(0.860222 2.8842 5.58751e-18)
(0.708635 2.72298 -8.82372e-18)
(0.972424 2.11861 3.5265e-18)
(1.22866 1.69155 2.01608e-18)
(1.51655 1.36534 -1.70467e-18)
(1.7677 1.14571 -6.36969e-20)
(1.97685 0.99804 -7.79018e-20)
(2.14362 0.896396 1.23165e-19)
(2.27124 0.821972 -2.50719e-19)
(2.35894 0.764189 4.32529e-19)
(1.19752 4.39181 0)
(2.59956 2.52561 2.45504e-19)
(1.81988 3.21422 -9.32417e-20)
(1.85876 2.58334 -1.50503e-18)
(1.78447 2.22521 1.38114e-18)
(1.8578 1.81512 0)
(1.98008 1.49779 0)
(2.11527 1.25744 -9.24738e-19)
(2.24394 1.08353 7.8135e-19)
(2.35506 0.95713 -2.70595e-19)
(2.43962 0.867409 -5.78887e-19)
(1.95103 3.55215 0)
(3.60078 1.94634 -2.32595e-19)
(2.74783 3.09678 3.31404e-18)
(2.76739 2.49662 -1.52906e-18)
(2.47889 2.4 -1.31234e-19)
(2.37074 2.02442 9.96847e-20)
(2.33123 1.72854 0)
(2.35746 1.45395 0)
(2.41235 1.24095 4.88801e-20)
(2.47688 1.07735 3.89341e-19)
(2.53074 0.956962 3.15406e-19)
(2.27336 2.68611 -5.39846e-18)
(3.98293 1.46371 4.22639e-18)
(3.32104 2.6775 -5.26702e-19)
(3.41142 2.11827 -4.26257e-19)
(3.07164 2.28895 8.14945e-19)
(2.88581 1.97978 0)
(2.72671 1.79192 -8.88185e-21)
(2.65669 1.53984 6.68184e-21)
(2.63089 1.3322 -3.00943e-19)
(2.63908 1.1571 -1.2638e-19)
(2.65619 1.02244 -3.10958e-19)
(2.3535 1.93857 0)
(4.05872 1.06191 -3.47308e-18)
(3.59817 2.19356 -6.48394e-19)
(3.76188 1.67789 2.87538e-18)
(3.46142 2.02641 -2.42036e-19)
(3.29232 1.76095 -1.2077e-18)
(3.07235 1.7153 -5.34196e-19)
(2.9477 1.51085 -2.26116e-19)
(2.8595 1.3445 0)
(2.81579 1.18481 6.98343e-20)
(2.7925 1.05682 -3.09973e-20)
(2.27669 1.30124 -1.12529e-18)
(3.99507 0.732547 0)
(3.69021 1.7321 -1.26883e-18)
(3.92088 1.2816 3.55935e-18)
(3.65898 1.71623 6.18419e-19)
(3.55456 1.4804 -4.11744e-19)
(3.32552 1.54964 -2.39567e-19)
(3.18465 1.39457 2.21152e-19)
(3.06209 1.28754 -2.01302e-19)
(2.98326 1.15833 -3.15784e-19)
(2.92816 1.04988 5.04958e-20)
(2.08655 0.835671 7.89079e-18)
(3.86146 0.48399 -2.94234e-18)
(3.66934 1.32887 1.02857e-18)
(3.9694 0.957571 0)
(3.73374 1.40945 0)
(3.68814 1.20736 -5.90604e-19)
(3.48194 1.34565 6.35681e-19)
(3.34938 1.23079 3.32271e-19)
(3.21744 1.18532 -7.71499e-19)
(3.12223 1.08978 2.34871e-19)
(3.04987 1.00863 2.14982e-19)
(1.86808 0.520485 -1.17296e-19)
(3.68553 0.274025 2.38461e-18)
(3.58908 1.00912 -4.61517e-18)
(3.93831 0.700273 7.40957e-19)
(3.73901 1.1342 1.82427e-18)
(3.73109 0.960177 1.12599e-18)
(3.55801 1.14186 0)
(3.44448 1.05216 3.58332e-19)
(3.32072 1.06223 -2.09928e-19)
(3.22292 0.994608 -4.99273e-19)
(3.14426 0.944905 -9.01332e-20)
(1.63218 0.266926 -7.67015e-19)
(3.46242 0.0748781 4.75478e-19)
(3.47262 0.749363 0)
(3.8556 0.480212 -5.81932e-19)
(3.69419 0.90371 -1.60347e-18)
(3.7155 0.743183 -9.40815e-19)
(3.57523 0.958571 7.57207e-19)
(3.48272 0.87845 -8.03744e-19)
(3.37728 0.938086 4.76622e-19)
(3.28594 0.887668 2.54109e-19)
(3.21179 0.870343 2.34809e-19)
(1.33866 0.0555924 0)
(3.18656 -0.0880894 -9.21012e-19)
(3.32148 0.526467 6.6737e-19)
(3.73005 0.303998 0)
(3.61304 0.70923 3.1839e-19)
(3.66059 0.560244 4.3139e-19)
(3.54886 0.803042 -6.04864e-19)
(3.48011 0.720521 8.2097e-19)
(3.39441 0.82546 0)
(3.31587 0.781792 -2.51881e-19)
(3.25429 0.794097 2.02824e-20)
(1.01978 -0.0900363 -5.67193e-19)
(2.88784 -0.191436 -7.08621e-19)
(3.14228 0.356406 5.34261e-19)
(3.57565 0.175909 0)
(3.50808 0.548475 -1.8356e-19)
(3.57758 0.419304 -3.60065e-19)
(3.48688 0.670132 2.29528e-19)
(3.45312 0.589304 -1.8391e-19)
(3.37797 0.725936 0)
(3.32143 0.686369 1.9565e-19)
(3.27063 0.725338 -2.73852e-19)
(0.72869 -0.188913 -2.59214e-19)
(2.58752 -0.261588 2.74114e-19)
(2.95026 0.221475 -4.21702e-19)
(3.40408 0.0877052 3.44605e-19)
(3.38599 0.420604 -3.1075e-19)
(3.48004 0.31172 1.63078e-19)
(3.40415 0.560368 0)
(3.40371 0.492014 0)
(3.33898 0.63558 0)
(3.30679 0.609776 0)
(3.26818 0.662032 0)
(0.43444 -0.267414 1.12393e-19)
(2.2647 -0.323725 -1.08588e-19)
(2.73894 0.101409 2.29789e-20)
(3.21822 0.0204974 7.79375e-20)
(3.25133 0.321215 -1.54051e-19)
(3.3677 0.238771 6.17501e-20)
(3.31522 0.465961 7.22321e-20)
(3.33392 0.422418 -5.99607e-20)
(3.28794 0.559776 8.93706e-20)
(3.27478 0.551753 -1.12103e-20)
(3.25226 0.60899 -3.83589e-20)
(0.122159 -0.310032 -7.78312e-20)
(1.92588 -0.356422 0)
(2.50573 0.0133073 0)
(3.0191 -0.0272932 0)
(3.10845 0.240858 -3.63564e-20)
(3.24121 0.19239 0)
(3.22 0.391149 0)
(3.25263 0.375292 -4.05156e-20)
(3.22802 0.500135 0)
(3.23115 0.509998 0)
(3.22545 0.567571 0)
(-0.172552 -0.331066 -1.01835e-19)
(1.58042 -0.373302 2.12884e-20)
(2.25099 -0.0535307 5.00904e-21)
(2.80006 -0.0601697 0)
(2.95389 0.175432 0)
(3.10527 0.164323 -6.43883e-20)
(3.11804 0.334999 0)
(3.16367 0.345958 0)
(3.1613 0.456508 0)
(3.17958 0.482077 0)
(3.19088 0.537506 0)
(-0.467285 -0.342093 6.67364e-20)
(1.20944 -0.388765 -1.54104e-20)
(1.96035 -0.113396 7.14373e-20)
(2.54969 -0.0860261 2.48861e-20)
(2.77762 0.121517 1.44651e-20)
(2.95587 0.146604 8.08703e-20)
(3.00657 0.293817 -1.22392e-20)
(3.06743 0.329427 0)
(3.08843 0.427437 0)
(3.12196 0.465412 0)
(3.15044 0.517947 0)
(-0.780781 -0.331485 2.17276e-20)
(0.80951 -0.390476 -1.60982e-20)
(1.62565 -0.158205 -6.17367e-20)
(2.26119 -0.105582 -1.82756e-20)
(2.56767 0.0782646 -4.14602e-20)
(2.78392 0.134063 5.24747e-21)
(2.87878 0.264856 0)
(2.96104 0.321554 -1.36916e-19)
(3.00793 0.41075 0)
(3.05841 0.457613 0)
(3.10455 0.50723 0)
(-1.09961 -0.305638 0)
(0.383573 -0.382381 0)
(1.2412 -0.187983 0)
(1.92136 -0.119315 1.91241e-20)
(2.30698 0.0419172 0)
(2.57366 0.122187 -1.20557e-19)
(2.72191 0.244182 6.50805e-20)
(2.83616 0.318312 -1.92316e-19)
(2.91432 0.40279 0)
(2.98561 0.455676 0)
(3.05029 0.502817 1.11278e-19)
(-1.42116 -0.269855 -6.23785e-20)
(-0.070789 -0.368017 -7.45414e-20)
(0.796961 -0.208405 2.14323e-19)
(1.50898 -0.131569 2.19167e-19)
(1.97016 0.00949275 0)
(2.29947 0.107816 2.50017e-19)
(2.51348 0.227074 -1.75132e-21)
(2.6751 0.314826 3.94067e-19)
(2.79434 0.397684 0)
(2.89355 0.4543 0)
(2.97976 0.500473 0)
(-1.75415 -0.221712 1.30603e-19)
(-0.563029 -0.34663 -1.17026e-19)
(0.27519 -0.21978 -1.3666e-19)
(0.995315 -0.141258 -5.66836e-19)
(1.52113 -0.0175333 -2.14977e-19)
(1.92203 0.0915446 3.62882e-20)
(2.21578 0.209844 2.73635e-19)
(2.44395 0.305293 2.2353e-19)
(2.61911 0.386677 2.77946e-19)
(2.75819 0.444765 3.50334e-19)
(2.87294 0.490052 -3.22876e-20)
(-2.08697 -0.181559 -1.54745e-19)
(-1.0941 -0.316014 1.36254e-19)
(-0.340301 -0.219072 5.35513e-19)
(0.348589 -0.139911 2.10833e-19)
(0.914628 -0.0285243 -2.97877e-19)
(1.3859 0.082303 -2.76425e-19)
(1.76811 0.194831 -3.87758e-19)
(2.07995 0.287375 -4.54671e-19)
(2.32775 0.362579 2.8324e-20)
(2.52306 0.419263 -7.23625e-19)
(2.68528 0.476263 5.39814e-19)
(-2.5376 -0.0102592 9.66383e-20)
(-1.73097 -0.260148 0)
(-1.08279 -0.163257 -5.86185e-19)
(-0.466522 -0.084682 9.39537e-19)
(0.101715 0.00612726 -1.3945e-18)
(0.623113 0.0954188 9.91831e-19)
(1.08594 0.178914 2.10668e-19)
(1.48317 0.249497 5.41929e-19)
(1.81135 0.305392 -7.36627e-19)
(2.07308 0.347097 2.10511e-19)
(2.31423 0.40998 -4.97996e-19)
(-2.69477 -0.458715 -3.85313e-19)
(-2.11852 -0.292071 1.89493e-18)
(-1.70092 -0.11933 -1.4248e-18)
(-1.25989 0.0280302 0)
(-0.795651 0.152609 -1.25258e-18)
(-0.323292 0.240677 1.09339e-18)
(0.129385 0.291366 2.60462e-19)
(0.5443 0.318073 0)
(0.915601 0.33167 0)
(1.23449 0.332105 -1.91772e-20)
(1.57725 0.350243 -1.49636e-19)
(-0.477462 -3.31664 -1.75065e-19)
(-0.444749 -1.69916 -6.71022e-19)
(0.0960736 -0.776796 0)
(0.665123 -0.193424 4.54612e-18)
(1.13239 0.133813 -5.60535e-18)
(1.49168 0.318556 3.46649e-18)
(1.75975 0.42237 -1.71942e-18)
(1.96091 0.487785 0)
(2.11494 0.531948 3.94293e-19)
(2.23285 0.56047 0)
(2.3174 0.574072 2.97152e-19)
(1.27074 -4.19776 5.78063e-18)
(1.53364 -2.38722 -3.81182e-18)
(1.34565 -2.11708 0)
(1.31093 -1.36106 3.73279e-18)
(1.39224 -0.759715 -3.55837e-18)
(1.57322 -0.298926 9.2688e-19)
(1.77283 0.0149166 -1.59137e-18)
(1.95483 0.21905 1.61064e-18)
(2.10486 0.351229 -4.0964e-19)
(2.2203 0.436376 -8.95958e-19)
(2.30094 0.486433 3.55014e-19)
(2.43299 -3.74786 -7.1293e-20)
(2.96824 -1.59674 -7.33486e-19)
(2.55111 -2.21309 5.39893e-19)
(2.25136 -1.63908 1.01024e-18)
(2.02876 -1.19571 -2.38323e-18)
(1.96108 -0.726086 -7.16531e-19)
(1.99873 -0.34101 -7.87923e-19)
(2.07992 -0.0521991 8.44025e-19)
(2.17273 0.151546 8.57758e-19)
(2.25634 0.291708 0)
(2.3192 0.382773 0)
(2.99543 -2.82684 -6.40836e-19)
(3.7777 -0.74819 3.48359e-19)
(3.43087 -1.81432 -3.64611e-19)
(3.0869 -1.39398 -5.38785e-20)
(2.72682 -1.2136 1.52755e-19)
(2.47248 -0.87054 -5.72108e-19)
(2.34008 -0.534348 0)
(2.29176 -0.232629 -1.43907e-18)
(2.29366 -0.00245455 1.20696e-18)
(2.31751 0.166698 2.09744e-19)
(2.34111 0.279914 4.17398e-19)
(3.15832 -1.9449 1.43303e-18)
(4.0986 -0.143595 -8.40819e-19)
(3.90415 -1.24734 1.81046e-19)
(3.62487 -0.913084 4.98608e-19)
(3.27059 -0.960417 2.86563e-19)
(2.94485 -0.771855 4.86e-19)
(2.70141 -0.546065 -4.03646e-19)
(2.54514 -0.299084 2.29697e-19)
(2.45473 -0.091945 0)
(2.40877 0.0739835 -1.2256e-19)
(2.38302 0.189041 -3.44911e-19)
(3.12506 -1.24885 0)
(4.1454 0.275066 7.66732e-19)
(4.07303 -0.71705 1.21471e-18)
(3.8749 -0.419048 -1.03564e-18)
(3.59265 -0.604668 -5.03453e-19)
(3.27509 -0.523655 -1.91683e-19)
(2.99419 -0.417294 2.96827e-20)
(2.77306 -0.258194 -6.10853e-20)
(2.61037 -0.106952 -3.37697e-20)
(2.4961 0.0249889 0)
(2.41048 0.116701 0)
(3.00241 -0.716353 0)
(4.07274 0.57851 0)
(4.0784 -0.286884 -2.34282e-18)
(3.93345 -0.00128032 8.12516e-19)
(3.73265 -0.254316 -1.25645e-19)
(3.44887 -0.225956 3.45127e-19)
(3.18114 -0.220467 1.75092e-19)
(2.93634 -0.140788 1.70213e-20)
(2.73073 -0.0567625 -5.16399e-20)
(2.56579 0.0255612 0)
(2.43061 0.0800715 0)
(2.8616 -0.311585 2.12804e-18)
(3.96183 0.786533 -8.91362e-19)
(4.01539 0.049354 2.75762e-18)
(3.89125 0.327388 -8.22622e-19)
(3.75841 0.0428557 3.98109e-19)
(3.50639 0.0623675 -5.26737e-19)
(3.26828 -0.00833218 1.19399e-20)
(3.02458 0.0142121 -1.3765e-19)
(2.80051 0.0364233 1.68812e-19)
(2.60151 0.0668315 6.35003e-21)
(2.42205 0.082735 -4.08305e-20)
(2.73266 0.00518615 -2.52377e-19)
(3.85151 0.937575 6.84142e-19)
(3.92182 0.316248 -2.63449e-18)
(3.81467 0.586644 4.5989e-19)
(3.71145 0.280441 3.84403e-20)
(3.49376 0.318628 5.76555e-19)
(3.28189 0.191764 0)
(3.048 0.178345 2.24682e-19)
(2.82065 0.150818 1.24662e-19)
(2.6013 0.134753 0)
(2.38594 0.1086 -4.74938e-20)
(2.60824 0.257561 -1.66017e-18)
(3.75648 1.07655 -1.29577e-18)
(3.80577 0.531669 1.02376e-18)
(3.73448 0.802734 -2.95932e-19)
(3.62463 0.481519 0)
(3.44027 0.52708 2.86887e-19)
(3.24642 0.373758 -2.22205e-19)
(3.02396 0.336709 -2.20864e-19)
(2.80144 0.272251 -1.81436e-19)
(2.57453 0.22359 3.64412e-20)
(2.34152 0.168526 -1.41239e-20)
(2.46565 0.431135 1.77885e-18)
(3.65011 1.22539 2.59532e-18)
(3.67929 0.721418 -1.52871e-19)
(3.64245 0.978155 -1.29314e-18)
(3.52489 0.660451 0)
(3.35923 0.703032 0)
(3.17935 0.53377 -3.64602e-19)
(2.96775 0.482153 2.80724e-19)
(2.75471 0.390357 1.45815e-19)
(2.53062 0.320689 7.0002e-20)
(2.30141 0.252491 -3.26829e-20)
(2.3141 0.553059 0)
(3.52105 1.3529 -1.49344e-19)
(3.55505 0.878442 0)
(3.53191 1.12861 1.4334e-19)
(3.41519 0.813736 8.3086e-19)
(3.26087 0.85579 -9.82973e-20)
(3.09221 0.672236 -4.29799e-19)
(2.89036 0.612058 2.0234e-19)
(2.68971 0.498643 -1.92229e-19)
(2.47498 0.414804 3.30919e-19)
(2.25761 0.330826 -1.81909e-19)
(2.17378 0.659549 0)
(3.37555 1.4617 2.65526e-18)
(3.42739 1.01472 -2.09875e-18)
(3.40927 1.25474 8.14001e-19)
(3.29516 0.946603 -2.05814e-18)
(3.14954 0.98424 1.1423e-18)
(2.99006 0.792276 0)
(2.79822 0.723767 6.54093e-19)
(2.61071 0.593376 -8.58555e-19)
(2.40997 0.500839 -1.37316e-19)
(2.21185 0.395643 1.80518e-19)
(2.0215 0.759945 2.79243e-18)
(3.20597 1.55835 -2.66562e-18)
(3.2897 1.14337 1.84693e-18)
(3.2762 1.35625 -1.65524e-18)
(3.16607 1.06697 3.98358e-19)
(3.02822 1.08699 -1.48013e-18)
(2.87636 0.896277 7.4047e-19)
(2.69595 0.815897 0)
(2.52155 0.673749 -4.88256e-19)
(2.33785 0.573031 0)
(2.16321 0.458988 0)
(1.85366 0.839284 -2.71952e-18)
(3.02056 1.63023 -1.83403e-18)
(3.14142 1.25504 1.45817e-18)
(3.1338 1.4365 1.44587e-18)
(3.029 1.17323 -2.02695e-18)
(2.89876 1.16756 2.71679e-18)
(2.75317 0.982985 -1.10644e-19)
(2.58714 0.888822 -4.25548e-19)
(2.42653 0.738891 4.85987e-19)
(2.26171 0.628681 -2.5117e-19)
(2.11142 0.511953 -1.773e-19)
(1.68532 0.907855 0)
(2.82149 1.68375 1.69082e-18)
(2.98114 1.35214 -1.33911e-18)
(2.98124 1.49816 0)
(2.88358 1.26433 1.14465e-18)
(2.76111 1.22931 -1.75264e-18)
(2.62349 1.05079 4.74764e-19)
(2.47357 0.940628 -3.64733e-19)
(2.32816 0.787644 -3.39936e-19)
(2.18433 0.667248 6.83929e-19)
(2.05801 0.547088 -1.47501e-19)
(1.50976 0.969064 -2.39512e-18)
(2.60051 1.72484 -1.55083e-18)
(2.80251 1.43801 6.77909e-19)
(2.81503 1.54441 7.63021e-19)
(2.72808 1.33903 -1.15975e-18)
(2.61572 1.27272 0)
(2.48926 1.09879 0)
(2.35621 0.971696 0)
(2.2296 0.817195 3.42085e-19)
(2.10847 0.688607 0)
(2.00459 0.566278 0)
(1.31874 1.01559 0)
(2.35181 1.74957 -6.64557e-19)
(2.5977 1.50809 5.67719e-19)
(2.62921 1.57444 7.46612e-19)
(2.5589 1.39294 0)
(2.46088 1.29654 0)
(2.35049 1.12452 0)
(2.23888 0.981291 0)
(2.13504 0.825999 1.79366e-19)
(2.03793 0.692661 -3.321e-19)
(1.95616 0.568848 1.46982e-19)
(1.11016 1.04507 2.54952e-18)
(2.06918 1.75568 7.13609e-19)
(2.35702 1.55703 8.16174e-19)
(2.41488 1.58431 -6.28926e-19)
(2.36993 1.4201 2.64649e-19)